{
  "inchikey": "RZJQGNCSTQAWON-UHFFFAOYSA-N", 
  "pm7": {
    "heatOfFormation": -393.6861, 
    "dipole": [
      "2.398", 
      "3.493", 
      "2.549"
    ], 
    "volume": 351.34, 
    "lumo": -1.395, 
    "homo": -9.556, 
    "surfaceArea": 309.3, 
    "dipoleMoment": 4.944
  }, 
  "chemspider_id": 4911, 
  "tags": [
    "alkene", 
    "hydrophilic", 
    "alkyl", 
    "aromatic", 
    "benzene_ring", 
    "carbonyl", 
    "sulphone", 
    "ester", 
    "ring", 
    "lactone"
  ], 
  "cas": [
    "186912-82-3", 
    "162011-90-7"
  ], 
  "pubchem_cid": 5090, 
  "molecular mass": 314.35566, 
  "synonyms": [
    "162011-90-7", 
    "186912-82-3", 
    "2(5h)-furanone, 4-(4-(methylsulfonyl)phenyl)-3-phenyl-", 
    "2(5h)-furanone, 4-[4-(methyl-sulfonyl)phenyl]-3-phenyl-", 
    "3-phenyl-4-(4-(methylsulfonyl)phenyl))-2(5h)-furanone", 
    "3-phenyl-4-[4-(methylsulfonyl)phenyl]-2(5h)-furanone", 
    "4-(4-(methylsulfonyl)phenyl)-3-phenyl-2(5h)-furanone", 
    "4-(4-mesylphenyl)-3-phenyl-5h-furan-2-one", 
    "4-(4-methylsulfonylphenyl)-3-phenyl-5h-furan-2-one", 
    "4-[4-(methylsulfonyl)phenyl]-3-phenyl-2(5h)-furanone", 
    "4-[4-(methylsulfonyl)phenyl]-3-phenylfuran-2(5h)-one", 
    "bspbio_002705", 
    "c07590", 
    "ccris 8967", 
    "ceoxx", 
    "chebi:8887", 
    "cmap_000024", 
    "d00568", 
    "divk1c_006765", 
    "hsdb 7262", 
    "kbio1_001709", 
    "kbio2_000559", 
    "kbio2_002345", 
    "kbio2_003127", 
    "kbio2_004913", 
    "kbio2_005695", 
    "kbio2_007481", 
    "kbio3_002205", 
    "kbio3_002825", 
    "kbiogr_001242", 
    "kbiogr_002345", 
    "kbioss_000559", 
    "kbioss_002348", 
    "ks-1107", 
    "ls-70511", 
    "mk 0966", 
    "mk 0996", 
    "mk 966", 
    "mk 996", 
    "mk-0966", 
    "mk-966", 
    "mk0966", 
    "mls000759440", 
    "ncgc00095118-01", 
    "ncgc00095118-02", 
    "nci60_041175", 
    "nsc720256", 
    "rofecoxib", 
    "rofecoxib (jan/usan/inn)", 
    "smr000466331", 
    "spbio_000492", 
    "specplus_000669", 
    "spectrum1504235", 
    "spectrum2_000446", 
    "spectrum3_001153", 
    "spectrum4_000631", 
    "spectrum5_001598", 
    "spectrum_000119", 
    "vioxx", 
    "vioxx (tn)", 
    "vioxx (trademark)"
  ], 
  "elements": [
    "H", 
    "C", 
    "S", 
    "O"
  ], 
  "pointGroup": "C1", 
  "inchi": "InChI=1S/C17H14O4S/c1-22(19,20)14-9-7-12(8-10-14)15-11-21-17(18)16(15)13-5-3-2-4-6-13/h2-10H,11H2,1H3", 
  "formula": "C17H14O4S", 
  "iupac_name": "4-(4-methylsulfonylphenyl)-3-phenyl-5h-furan-2-one", 
  "name": "rofecoxib"
}