{
  "inchikey": "MABNMNVCOAICNO-UHFFFAOYSA-N", 
  "pm7": {
    "heatOfFormation": 144.03344, 
    "dipole": [
      "0.129", 
      "-0.000", 
      "0.001"
    ], 
    "volume": 106.22, 
    "lumo": -0.063, 
    "homo": -8.334, 
    "surfaceArea": 116.73, 
    "dipoleMoment": 0.129
  }, 
  "chemspider_id": 119907, 
  "tags": [
    "ring", 
    "aromatic"
  ], 
  "cas": "288-05-1", 
  "pubchem_cid": 136130, 
  "molecular mass": 131.03456, 
  "synonyms": [
    "288-05-1", 
    "367141_aldrich", 
    "chebi:30857", 
    "inchi=1/c4h4se/c1-2-4-5-3-1/h1-4", 
    "selenophene"
  ], 
  "elements": [
    "H", 
    "C", 
    "Se"
  ], 
  "pointGroup": "C2v", 
  "inchi": "InChI=1S/C4H4Se/c1-2-4-5-3-1/h1-4H", 
  "formula": "C4H4Se", 
  "iupac_name": "selenophene", 
  "name": "selenophene"
}