{
  "inchikey": "WYURNTSHIVDZCO-UHFFFAOYSA-N", 
  "pm7": {
    "heatOfFormation": -204.73969, 
    "dipole": [
      "-2.005", 
      "-0.057", 
      "-0.190"
    ], 
    "volume": 98.76, 
    "lumo": 2.485, 
    "homo": -9.666, 
    "surfaceArea": 112.32, 
    "dipoleMoment": 2.015
  }, 
  "chemspider_id": 7737, 
  "tags": [
    "alkyl", 
    "ring", 
    "ether", 
    "hydrophilic"
  ], 
  "cas": [
    "77392-70-2", 
    "24979-97-3", 
    "109-99-9"
  ], 
  "pubchem_cid": 8028, 
  "molecular mass": 72.10572, 
  "synonyms": [
    "1,4-epoxybutane", 
    "109-99-9", 
    "178810_aldrich", 
    "186562_aldrich", 
    "242888_aldrich", 
    "24979-97-3", 
    "33709_riedel", 
    "34865_sial", 
    "34946_riedel", 
    "360589_sial", 
    "401757_aldrich", 
    "494461_aldrich", 
    "568775_aldrich", 
    "676764_sial", 
    "72827_fluka", 
    "77392-70-2", 
    "78445_fluka", 
    "87368_fluka", 
    "87369_fluka", 
    "87371_fluka", 
    "agrisynth thf", 
    "ai3-07570", 
    "aids-001592", 
    "aids001592", 
    "butane .alpha.,.delta.-oxide", 
    "butane alpha,delta-oxide", 
    "butane, 1,4-epoxy-", 
    "butane, alpha,delta-oxide", 
    "butylene oxide", 
    "c0019", 
    "ccris 6276", 
    "chebi:26911", 
    "cyclotetramethylene", 
    "cyclotetramethylene oxide", 
    "diethylene oxide 1,4-epoxybutane", 
    "einecs 203-726-8", 
    "furan, tetrahydro-", 
    "furan, tetrahydro-, homopolymer", 
    "furanidine", 
    "hsdb 125", 
    "hydrofuran", 
    "inchi=1/c4h8o/c1-2-4-5-3-1/h1-4h", 
    "mobile phase a for separation of amino acids on abi sequencers", 
    "ncgc00090740-01", 
    "nci-c60560", 
    "nsc 57858", 
    "nsc57858", 
    "oxacyclopentane", 
    "oxolane", 
    "polytetrahydrofuran", 
    "rcra waste no. u213", 
    "rcra waste number u213", 
    "st5214349", 
    "tetrahydrofuraan", 
    "tetrahydrofuraan [dutch]", 
    "tetrahydrofuran", 
    "tetrahydrofuran [un2056]  [flammable liquid]", 
    "tetrahydrofuran solution", 
    "tetrahydrofuranne", 
    "tetrahydrofuranne [french]", 
    "tetraidrofurano", 
    "tetraidrofurano [italian]", 
    "tetramethylene oxide", 
    "thf", 
    "thymic humoral factor", 
    "un2056", 
    "wln: t5otj"
  ], 
  "elements": [
    "H", 
    "C", 
    "O"
  ], 
  "pointGroup": "C1", 
  "inchi": "InChI=1S/C4H8O/c1-2-4-5-3-1/h1-4H2", 
  "formula": "C4H8O", 
  "iupac_name": "oxolane", 
  "name": "oxolane"
}