{
  "inchikey": "WEVYAHXRMPXWCK-UHFFFAOYSA-N", 
  "pm7": {
    "heatOfFormation": 76.18707, 
    "dipole": [
      "3.927", 
      "0.003", 
      "-0.004"
    ], 
    "volume": 62.7, 
    "lumo": 1.222, 
    "homo": -12.772, 
    "surfaceArea": 81.53, 
    "dipoleMoment": 3.927
  }, 
  "chemspider_id": 6102, 
  "tags": [
    "alkyl", 
    "nitrile", 
    "base", 
    "hydrophilic"
  ], 
  "cas": [
    "54841-72-4", 
    "26809-02-9", 
    "75-05-8"
  ], 
  "pubchem_cid": 6342, 
  "molecular mass": 41.05192, 
  "synonyms": [
    "00683_fluka", 
    "00695_fluka", 
    "00700_fluka", 
    "00709_fluka", 
    "154601_aldrich", 
    "26809-02-9", 
    "271004_aldrich", 
    "33019_riedel", 
    "34481_riedel", 
    "34668_riedel", 
    "34669_riedel", 
    "34676_riedel", 
    "34678_riedel", 
    "34851_sial", 
    "34881_riedel", 
    "34887_riedel", 
    "34888_sial", 
    "34896_riedel", 
    "34955_riedel", 
    "34967_riedel", 
    "34976_riedel", 
    "34998_sial", 
    "360457_sial", 
    "437557_sial", 
    "439134_aldrich", 
    "45983_riedel", 
    "48484_supelco", 
    "494445_aldrich", 
    "539473_aldrich", 
    "54841-72-4", 
    "565423_aldrich", 
    "574724_aldrich", 
    "574732_aldrich", 
    "576948_aldrich", 
    "576956_aldrich", 
    "576964_aldrich", 
    "578541_aldrich", 
    "590754_aldrich", 
    "597503_aldrich", 
    "60004_riedel", 
    "632333_aldrich", 
    "639133_aldrich", 
    "675415_aldrich", 
    "679186_sial", 
    "75-05-8", 
    "77486_fluka", 
    "92679_fluka", 
    "acetonitril", 
    "acetonitril [german, dutch]", 
    "acetonitrile", 
    "acetonitrile : water 15:85; with 0.1% ipc reagent", 
    "acetonitrile [un1648]  [flammable liquid]", 
    "acetonitrile solution", 
    "acetonitrile with 0.1% acetic acid", 
    "acetonitrile with 0.1% ammonium acetate", 
    "acetonitrile with 0.1% formic acid", 
    "acetonitrile with 0.1% formic acid and 0.01% trifluoroacetic acid", 
    "acetonitrile with 0.1% trifluoroacetic acid", 
    "acn", 
    "ai3-00327", 
    "c1151", 
    "cc.equiv.n", 
    "ccn", 
    "ccris 1628", 
    "ch3-c#n", 
    "chebi:38472", 
    "cyanomethane", 
    "cyanure de methyl", 
    "cyanure de methyl [french]", 
    "einecs 200-835-2", 
    "ethanenitrile", 
    "ethyl nitrile", 
    "hsdb 42", 
    "inchi=1/c2h3n/c1-2-3/h1h", 
    "mecn", 
    "methane, cyano-", 
    "methanecarbonitrile", 
    "methyl cyanide", 
    "methylkyanid [czech]", 
    "n-term lc solvent system a", 
    "ncgc00091552-01", 
    "nci-c60822", 
    "ncme", 
    "nsc 7593", 
    "nsc7593", 
    "rcra waste no. u003", 
    "rcra waste number u003", 
    "st5214398", 
    "un1648", 
    "usaf ek-488", 
    "wln: nc1"
  ], 
  "elements": [
    "H", 
    "C", 
    "N"
  ], 
  "pointGroup": "C3v", 
  "inchi": "InChI=1S/C2H3N/c1-2-3/h1H3", 
  "formula": "C2H3N", 
  "iupac_name": "acetonitrile", 
  "name": "acetonitrile"
}