{
  "inchikey": "MLFHJEHSLIIPHL-UHFFFAOYSA-N", 
  "pm7": {
    "heatOfFormation": -502.14902, 
    "dipole": [
      "-0.854", 
      "0.997", 
      "1.859"
    ], 
    "volume": 181.39, 
    "lumo": 1.165, 
    "homo": -10.815, 
    "surfaceArea": 187.84, 
    "dipoleMoment": 2.276
  }, 
  "chemspider_id": 29016, 
  "tags": [
    "alkyl", 
    "carbonyl", 
    "ester", 
    "hydrophilic"
  ], 
  "cas": [
    "123-92-2", 
    "29732-50-1"
  ], 
  "pubchem_cid": 31276, 
  "molecular mass": 130.18486, 
  "synonyms": [
    "1-butanol, 3-methyl-, acetate", 
    "112674_aldrich", 
    "123-92-2", 
    "2-methylbutyl ethanoate", 
    "29732-50-1", 
    "3-methyl-1-butanol acetate", 
    "3-methyl-1-butanol, acetate", 
    "3-methyl-1-butyl acetate", 
    "3-methylbutyl acetate", 
    "3-methylbutyl ethanoate", 
    "306967_aldrich", 
    "4-02-00-00157 (beilstein handbook reference)", 
    "79857_fluka", 
    "acetic acid 3-methylbutyl ester", 
    "acetic acid isoamyl ester", 
    "acetic acid isopentyl ester", 
    "acetic acid, 3-methylbutyl ester", 
    "acetic acid, isopentyl ester", 
    "ai3-00576", 
    "amyl acetate, common", 
    "amylacetic ester", 
    "beta-methylbutyl acetate", 
    "brn 1744750", 
    "c12296", 
    "ccris 6051", 
    "einecs 204-662-3", 
    "fema no. 2055", 
    "fema number 2055", 
    "hsdb 1818", 
    "i-amyl acetate", 
    "in commercial practice amyl invariably means isoamyl, unless it is prefaced by the n- for normal", 
    "iso-amyl acetate", 
    "isoamyl  acetate", 
    "isoamyl acetate", 
    "isoamyl acetate (natural)", 
    "isoamyl ethanoate", 
    "isoamylester kyseliny octove [czech]", 
    "isopentyl acetate", 
    "isopentyl alcohol, acetate", 
    "isopentyl ethanoate", 
    "ls-687", 
    "ncgc00091500-01", 
    "nsc 9260", 
    "nsc9260", 
    "st5214469", 
    "w205508_aldrich", 
    "w205532_aldrich", 
    "wln: 1y1 & 2ov1", 
    "zinc00388082"
  ], 
  "elements": [
    "H", 
    "C", 
    "O"
  ], 
  "pointGroup": "C1", 
  "inchi": "InChI=1S/C7H14O2/c1-6(2)4-5-9-7(3)8/h6H,4-5H2,1-3H3", 
  "formula": "C7H14O2", 
  "iupac_name": "3-methylbutyl acetate", 
  "name": "isoamyl acetate"
}