{
  "inchikey": "PGMYKACGEOXYJE-UHFFFAOYSA-N", 
  "pm7": {
    "heatOfFormation": -500.12913, 
    "dipole": [
      "-0.853", 
      "1.019", 
      "1.758"
    ], 
    "volume": 181.73, 
    "lumo": 1.145, 
    "homo": -10.842, 
    "surfaceArea": 192.52, 
    "dipoleMoment": 2.204
  }, 
  "chemspider_id": 11843, 
  "tags": [
    "alkyl", 
    "carbonyl", 
    "ester", 
    "hydrophilic"
  ], 
  "cas": "628-63-7", 
  "pubchem_cid": 12348, 
  "molecular mass": 130.18486, 
  "synonyms": [
    "1-pentanol acetate", 
    "1-pentanol, acetate", 
    "1-pentyl acetate", 
    "109584_aldrich", 
    "4-02-00-00152 (beilstein handbook reference)", 
    "41464_fluka", 
    "46022_fluka", 
    "628-63-7", 
    "acetate d'amyle", 
    "acetate d'amyle [french]", 
    "acetic acid amyl ester", 
    "acetic acid pentyl ester", 
    "acetic acid, amyl ester", 
    "acetic acid, pentyl ester", 
    "acetic acid, pentyl ester (mixed isomers)", 
    "ai3-02729", 
    "amyl acetate", 
    "amyl acetate (commercial)", 
    "amyl acetate (mixed isomers)", 
    "amyl acetate, n-", 
    "amyl acetates [un1104]  [flammable liquid]", 
    "amyl acetic ester", 
    "amyl acetic ether", 
    "amylazetat", 
    "amylazetat [german]", 
    "amylester kyseliny octove [czech]", 
    "banana oil", 
    "birnenoel", 
    "brn 1744753", 
    "caswell no. 049a", 
    "dymon swh wasp & hornet spray", 
    "einecs 211-047-3", 
    "epa pesticide chemical code 000169", 
    "holiday pet repellent", 
    "holiday repellent dust", 
    "hsdb 5126", 
    "inchi=1/c7h14o2/c1-3-4-5-6-9-7(2)8/h3-6h2,1-2h", 
    "n-amyl acetate", 
    "n-amyl acetate, normal", 
    "n-amyl acetate, normal (natural)", 
    "n-pentyl acetate", 
    "n-pentyl ethanoate", 
    "nsc 7923", 
    "nsc7923", 
    "octan amylu", 
    "octan amylu [polish]", 
    "pear oil", 
    "pent-acetate", 
    "pent-acetate 28", 
    "pentyl acetate", 
    "pentyl ethanoate", 
    "prim-amyl acetate", 
    "primary amyl acetate", 
    "un1104", 
    "w504009_aldrich", 
    "wln: 5ov1", 
    "zinc01586314"
  ], 
  "elements": [
    "H", 
    "C", 
    "O"
  ], 
  "pointGroup": "Cs", 
  "inchi": "InChI=1S/C7H14O2/c1-3-4-5-6-9-7(2)8/h3-6H2,1-2H3", 
  "formula": "C7H14O2", 
  "iupac_name": "pentyl acetate", 
  "name": "pentyl acetate"
}