{
  "inchikey": "WBJINCZRORDGAQ-UHFFFAOYSA-N", 
  "pm7": {
    "heatOfFormation": -383.40186, 
    "dipole": [
      "1.841", 
      "-0.891", 
      "-0.001"
    ], 
    "volume": 95.13, 
    "lumo": 0.889, 
    "homo": -11.044, 
    "surfaceArea": 112.01, 
    "dipoleMoment": 2.045
  }, 
  "chemspider_id": 7734, 
  "tags": [
    "alkyl", 
    "carbonyl", 
    "ester", 
    "hydrophilic"
  ], 
  "cas": "109-94-4", 
  "pubchem_cid": 8025, 
  "molecular mass": 74.07854, 
  "synonyms": [
    "109-94-4", 
    "112682_sial", 
    "88554_fluka", 
    "aethylformiat", 
    "aethylformiat [german]", 
    "ai3-00407", 
    "areginal", 
    "carboxylic acid oxaethane", 
    "caswell no. 443a", 
    "einecs 203-721-0", 
    "epa pesticide chemical code 043102", 
    "ethyl formate", 
    "ethyl formate (natural)", 
    "ethyl formate [un1190]  [flammable liquid]", 
    "ethyl formic ester", 
    "ethyl methanoate", 
    "ethyle (formiate d') [french]", 
    "ethyle(formiate d')", 
    "ethylester kyseliny mravenci [czech]", 
    "ethylformiaat", 
    "ethylformiaat [dutch]", 
    "etile (formiato di) [italian]", 
    "etile(formiato di)", 
    "fema no. 2434", 
    "fema number 2434", 
    "formic acid ethyl ester", 
    "formic acid, ethyl ester", 
    "formic acid,ethyl ester", 
    "formic ether", 
    "hsdb 943", 
    "inchi=1/c3h6o2/c1-2-5-3-4/h3h,2h2,1h", 
    "mrowczan etylu", 
    "mrowczan etylu [polish]", 
    "nsc 406578", 
    "nsc406578", 
    "nsc8828", 
    "un1190", 
    "w243418_aldrich", 
    "w243434_aldrich", 
    "wln: vho2", 
    "zinc01648253"
  ], 
  "elements": [
    "H", 
    "C", 
    "O"
  ], 
  "pointGroup": "Cs", 
  "inchi": "InChI=1S/C3H6O2/c1-2-5-3-4/h3H,2H2,1H3", 
  "formula": "C3H6O2", 
  "iupac_name": "ethyl formate", 
  "name": "ethyl formate"
}