{
  "inchikey": "HONIICLYMWZJFZ-UHFFFAOYSA-N", 
  "pm7": {
    "heatOfFormation": 70.47371, 
    "dipole": [
      "1.487", 
      "0.017", 
      "-1.532"
    ], 
    "volume": 84.79, 
    "lumo": 2.695, 
    "homo": -9.332, 
    "surfaceArea": 100.84, 
    "dipoleMoment": 2.135
  }, 
  "chemspider_id": 9993, 
  "tags": [
    "alkyl", 
    "donor", 
    "ring", 
    "hydrophilic"
  ], 
  "cas": [
    "53860-05-2", 
    "156423-81-3", 
    "503-29-7"
  ], 
  "pubchem_cid": 10422, 
  "molecular mass": 57.09438, 
  "synonyms": [
    "156423-81-3", 
    "281069_aldrich", 
    "503-29-7", 
    "53860-05-2", 
    "92457_fluka", 
    "ai3-61395", 
    "azacyclobutane", 
    "azetidine", 
    "azetidine, homopolymer", 
    "azetidine, l-", 
    "chebi:30968", 
    "einecs 207-963-8", 
    "inchi=1/c3h7n/c1-2-4-3-1/h4h,1-3h", 
    "polypropylene amine", 
    "trimethylene imine", 
    "trimethylenimine"
  ], 
  "elements": [
    "H", 
    "C", 
    "N"
  ], 
  "pointGroup": "Cs", 
  "inchi": "InChI=1S/C3H7N/c1-2-4-3-1/h4H,1-3H2", 
  "formula": "C3H7N", 
  "iupac_name": "azetidine", 
  "name": "azetidine"
}