{
  "inchikey": "ICMAFTSLXCXHRK-UHFFFAOYSA-N", 
  "pm7": {
    "heatOfFormation": -498.42467, 
    "dipole": [
      "1.248", 
      "-1.547", 
      "0.022"
    ], 
    "volume": 180.67, 
    "lumo": 1.196, 
    "homo": -10.746, 
    "surfaceArea": 190.8, 
    "dipoleMoment": 1.987
  }, 
  "chemspider_id": 10420, 
  "tags": [
    "alkyl", 
    "carbonyl", 
    "ester", 
    "hydrophilic"
  ], 
  "cas": "539-82-2", 
  "pubchem_cid": 10882, 
  "molecular mass": 130.18486, 
  "synonyms": [
    "290866_aldrich", 
    "30784_fluka", 
    "539-82-2", 
    "ai3-01270", 
    "einecs 208-726-1", 
    "ethyl n-valerate", 
    "ethyl pentanoate", 
    "ethyl valerate", 
    "ethyl valerianate", 
    "fema no. 2462", 
    "nsc 8868", 
    "nsc8868", 
    "pentanoic acid ethyl ester", 
    "pentanoic acid, ethyl ester", 
    "valeric acid ethyl ester", 
    "valeric acid, ethyl ester", 
    "valeric acid, ethyl ester (8ci)", 
    "w246204_aldrich", 
    "zinc01648285"
  ], 
  "elements": [
    "H", 
    "C", 
    "O"
  ], 
  "pointGroup": "Cs", 
  "inchi": "InChI=1S/C7H14O2/c1-3-5-6-7(8)9-4-2/h3-6H2,1-2H3", 
  "formula": "C7H14O2", 
  "iupac_name": "ethyl pentanoate", 
  "name": "ethyl valerate"
}