{
  "inchikey": "HEFNNWSXXWATRW-JTQLQIEISA-N", 
  "pm7": {
    "heatOfFormation": -439.4501, 
    "dipole": [
      "1.188", 
      "0.049", 
      "-1.452"
    ], 
    "volume": 277.75, 
    "lumo": 0.118, 
    "homo": -9.394, 
    "surfaceArea": 255.73, 
    "dipoleMoment": 1.877
  }, 
  "chemspider_id": 36498, 
  "tags": [
    "carboxylic_acid", 
    "hydrophilic", 
    "alkyl", 
    "aromatic", 
    "benzene_ring", 
    "carbonyl", 
    "donor", 
    "ring", 
    "acid"
  ], 
  "cas": "51146-56-6", 
  "pubchem_cid": 39912, 
  "molecular mass": 206.28082, 
  "synonyms": [
    "(+)-(s)-ibuprofen", 
    "(+)-(s)-p-isobutylhydratropic acid", 
    "(+)-alpha-methyl-4-(2-methylpropyl)benzeneacetic acid", 
    "(+)-ibuprofen", 
    "(+)-ibuprophen", 
    "(2s)-2-(4-isobutylphenyl)propanoic acid", 
    "(2s)-2-(4-isobutylphenyl)propionic acid", 
    "(2s)-2-[4-(2-methylpropyl)phenyl]propanoic acid", 
    "(alphas)-alpha-methyl-4-(2-methylpropyl)benzeneacetic acid", 
    "(s)-()-2-(4-isobutylphenyl)propionic acid", 
    "(s)-()-4-isobutyl-alpha-methylphenylacetic acid", 
    "(s)-()-ibuprofen", 
    "(s)-(+)-2-(4-isobutylphenyl)propionic acid", 
    "(s)-(+)-4-isobutyl-alpha-methylphenylacetic acid", 
    "(s)-(+)-ibuprofen", 
    "(s)-2-(4-isobutylphenyl)propanoic acid", 
    "(s)-2-(4-isobutylphenyl)propionic acid", 
    "(s)-2-(p-isobutylphenyl)propionic acid", 
    "(s)-alpha-methyl-4-(2-methylpropyl)benzeneacetic acid", 
    "(s)-ibuprofen", 
    "2-(4-isobutylphenyl)propionic acid", 
    "375160_aldrich", 
    "51146-56-6", 
    "58635_fluka", 
    "atriscal", 
    "benzeneacetic acid, alpha-methyl-4-(2-methylpropyl)-, (alphas)-", 
    "benzeneacetic acid, alpha-methyl-4-(2-methylpropyl)-, (alphas)- (9ci)", 
    "benzeneacetic acid, alpha-methyl-4-(2-methylpropyl)-, (s)-", 
    "benzeneacetic acid, alpha-methyl-4-(2-methylpropyl-, (s)-;", 
    "bpbio1_000830", 
    "bspbio_000754", 
    "cas-51146-56-6", 
    "chebi:43415", 
    "d-ibuprofen", 
    "d-ibuproten", 
    "d03715", 
    "dexibuprofen", 
    "dexibuprofen (usan/inn)", 
    "dexibuprofen lysine [usan]", 
    "dexibuprofene [inn-french]", 
    "dexibuprofeno [inn-spanish]", 
    "dexibuprofenum [inn-latin]", 
    "dexoptifen", 
    "dolomin", 
    "eu-0100654", 
    "i106_sigma", 
    "ibp", 
    "lopac-i-106", 
    "lopac-i-4883", 
    "lopac0_000654", 
    "mls001066327", 
    "ncgc00015529-01", 
    "ncgc00015529-02", 
    "ncgc00016861-01", 
    "prestwick0_000907", 
    "prestwick1_000907", 
    "prestwick2_000907", 
    "prestwick3_000907", 
    "seractil", 
    "smr000326688", 
    "spbio_002953"
  ], 
  "elements": [
    "H", 
    "C", 
    "O"
  ], 
  "pointGroup": "C1", 
  "inchi": "InChI=1S/C13H18O2/c1-9(2)8-11-4-6-12(7-5-11)10(3)13(14)15/h4-7,9-10H,8H2,1-3H3,(H,14,15)/t10-/m0/s1", 
  "formula": "C13H18O2", 
  "iupac_name": "(2s)-2-[4-(2-methylpropyl)phenyl]propanoic acid", 
  "name": "(s)-(+)-ibuprofen"
}