{
  "inchikey": "XSQUKJJJFZCRTK-UHFFFAOYSA-N", 
  "pm7": {
    "heatOfFormation": -214.5247, 
    "dipole": [
      "0.081", 
      "-4.108", 
      "-0.239"
    ], 
    "volume": 71.64, 
    "lumo": 1.475, 
    "homo": -10.435, 
    "surfaceArea": 90.24, 
    "dipoleMoment": 4.115
  }, 
  "chemspider_id": 1143, 
  "tags": [
    "carbonyl", 
    "donor", 
    "urea", 
    "hydrophilic"
  ], 
  "cas": [
    "4744-36-9", 
    "57-13-6", 
    "173144-80-4", 
    "173994-65-5", 
    "174693-33-5", 
    "175276-38-7", 
    "30535-50-3", 
    "37955-36-5"
  ], 
  "pubchem_cid": 1176, 
  "molecular mass": 60.05526, 
  "synonyms": [
    "173144-80-4", 
    "173994-65-5", 
    "174693-33-5", 
    "175276-38-7", 
    "299367_aldrich", 
    "30535-50-3", 
    "33247_riedel", 
    "37955-36-5", 
    "4744-36-9", 
    "51456_fluka", 
    "51457_fluka", 
    "51459_fluka", 
    "51460_fluka", 
    "51465_fluka", 
    "57-13-6", 
    "ai3-01202", 
    "aids-003652", 
    "aids003652", 
    "alphadrate", 
    "aqua care", 
    "aqua care hp", 
    "aquacare", 
    "aquacare hp", 
    "aquadrate", 
    "arf", 
    "b-i-k", 
    "benural 70", 
    "bspbio_003341", 
    "c00086", 
    "c0165", 
    "carbaderm", 
    "carbamide", 
    "carbamide resin", 
    "carbamimic acid", 
    "carbamimidic acid", 
    "carbamimidic acid (van)", 
    "carbonyl diamide", 
    "carbonyldiamide", 
    "carbonyldiamine", 
    "carmol", 
    "carmol 40", 
    "caswell no. 902", 
    "ccris 989", 
    "chebi:16199", 
    "component of artra ashy skin cream", 
    "d00023", 
    "divk1c_000086", 
    "einecs 200-315-5", 
    "elaqua xx", 
    "epa pesticide chemical code 085702", 
    "eucerin 10% urea lotion", 
    "h2nc(o)nh2", 
    "harnstoff", 
    "harnstoff [german]", 
    "hsdb 163", 
    "hyanit", 
    "idi1_000086", 
    "inchi=1/ch4n2o/c2-1(3)4/h(h4,2,3,4", 
    "isourea", 
    "karbamid", 
    "kbio1_000086", 
    "kbio2_001152", 
    "kbio2_003720", 
    "kbio2_006288", 
    "kbio3_002843", 
    "kbiogr_001775", 
    "kbioss_001152", 
    "keratinamin", 
    "keratinamin kowa", 
    "mocovina [czech]", 
    "ncgc00090892-01", 
    "ncgc00090892-02", 
    "ncgc00090892-03", 
    "nci-c02119", 
    "ninds_000086", 
    "nsc 34375", 
    "nsc34375", 
    "optigen 1200", 
    "panafil", 
    "pastaron", 
    "pastaron (tn)", 
    "pastaron 10", 
    "pastaron 20", 
    "pastaron 20 soft", 
    "pastaron soft", 
    "polyurea", 
    "prespersion, 75 urea", 
    "pseudourea", 
    "rubinol st 010", 
    "spbio_001263", 
    "spectrum1500604", 
    "spectrum2_001192", 
    "spectrum3_001791", 
    "spectrum4_001168", 
    "spectrum5_001862", 
    "spectrum_000672", 
    "st5214565", 
    "supercel 3000", 
    "u0631_sigma", 
    "u1250_sigma", 
    "u4128_sigma", 
    "u4883_sigma", 
    "u4884_sigma", 
    "u5128_sial", 
    "u5378_sigma", 
    "u6504_sigma", 
    "u7129_sigma", 
    "ultra mide", 
    "ur", 
    "ure", 
    "urea", 
    "urea (8ci,9ci)", 
    "urea (jp15/usp)", 
    "urea [jan]", 
    "urea ammonium nitrate solution", 
    "urea perhydrate", 
    "urea solution", 
    "urea, homopolymer", 
    "urea-12c", 
    "urea-13c", 
    "ureacin-10 lotion", 
    "ureacin-20", 
    "ureacin-40 creme", 
    "ureaphil", 
    "uree", 
    "ureophil", 
    "urepeal", 
    "urepeal l", 
    "urepearl", 
    "urevert", 
    "varioform ii", 
    "wln: zvz"
  ], 
  "elements": [
    "H", 
    "C", 
    "O", 
    "N"
  ], 
  "pointGroup": "C2", 
  "inchi": "InChI=1S/CH4N2O/c2-1(3)4/h(H4,2,3,4)", 
  "formula": "CH4N2O", 
  "iupac_name": "urea", 
  "name": "urea"
}