{
  "inchikey": "XSROQCDVUIHRSI-UHFFFAOYSA-N", 
  "pm7": {
    "heatOfFormation": 24.3022, 
    "dipole": [
      "-1.896", 
      "-0.005", 
      "-0.638"
    ], 
    "volume": 96.5, 
    "lumo": -0.22, 
    "homo": -8.594, 
    "surfaceArea": 109.3, 
    "dipoleMoment": 2.001
  }, 
  "chemspider_id": 8895, 
  "tags": [
    "alkyl", 
    "thioether", 
    "ring"
  ], 
  "cas": "287-27-4", 
  "pubchem_cid": 9251, 
  "molecular mass": 74.14474, 
  "synonyms": [
    "287-27-4", 
    "92458_aldrich", 
    "einecs 206-015-0", 
    "inchi=1/c3h6s/c1-2-4-3-1/h1-3h", 
    "nsc 56443", 
    "nsc56443", 
    "propane, 1,3-epithio-", 
    "thiacyclobutane", 
    "thietane", 
    "trimethylene sulfide", 
    "trimethylene sulfide (8ci)"
  ], 
  "elements": [
    "H", 
    "S", 
    "C"
  ], 
  "pointGroup": "C2v", 
  "inchi": "InChI=1S/C3H6S/c1-2-4-3-1/h1-3H2", 
  "formula": "C3H6S", 
  "iupac_name": "thietane", 
  "name": "thietane"
}