{
  "inchikey": "RYYVLZVUVIJVGH-UHFFFAOYSA-N", 
  "pm7": {
    "heatOfFormation": -194.18533, 
    "dipole": [
      "-3.718", 
      "-0.329", 
      "0.008"
    ], 
    "volume": 216.72, 
    "lumo": -0.46, 
    "homo": -8.976, 
    "surfaceArea": 208.24, 
    "dipoleMoment": 3.732
  }, 
  "chemspider_id": 2424, 
  "tags": [
    "urea", 
    "hydrophilic", 
    "tert_amine", 
    "sec_amine", 
    "alkyl", 
    "tertiary", 
    "base", 
    "amine", 
    "lactam", 
    "donor", 
    "ring", 
    "carbonyl", 
    "secondary"
  ], 
  "cas": [
    "71701-02-5", 
    "95789-13-2", 
    "58-08-2"
  ], 
  "pubchem_cid": 2519, 
  "molecular mass": 194.1906, 
  "synonyms": [
    "1,3,7-trimethyl-2,6-dioxo-1,2,3,6-tetrahydropurine", 
    "1,3,7-trimethyl-2,6-dioxopurine", 
    "1,3,7-trimethyl-3,7-dihydro-1h-purine-2,6-dione", 
    "1,3,7-trimethylpurine-2,6-dione", 
    "1,3,7-trimethylxanthine", 
    "1-methyltheobromine", 
    "1h-purine-2,6-dione, 3,7-dihydro-1,3,7-trimethyl-", 
    "27602_fluka", 
    "3,7-dihydro-1,3,7-trimethyl-1h-purin-2,6-dion", 
    "3,7-dihydro-1,3,7-trimethyl-1h-purin-2,6-dion (coffein)", 
    "3,7-dihydro-1,3,7-trimethyl-1h-purine", 
    "3,7-dihydro-1,3,7-trimethyl-1h-purine (9ci)", 
    "3,7-dihydro-1,3,7-trimethyl-1h-purine-2,6-dione", 
    "5-26-13-00558 (beilstein handbook reference)", 
    "5-26-13-00558 (beilstein)", 
    "58-08-2", 
    "7-methyltheophylline", 
    "71701-02-5", 
    "75035_fluka", 
    "95789-13-2", 
    "acon1_000085", 
    "ai3-20154", 
    "aids-001649", 
    "aids001649", 
    "alert-pep", 
    "anhydrous caffeine", 
    "anhydrous caffeine (jp15)", 
    "anhydrous caffeine (tn)", 
    "bayer select headache pain", 
    "bio1_000473", 
    "bio1_000962", 
    "bio1_001451", 
    "brn 0017705", 
    "bspbio_001921", 
    "c07481", 
    "c0750_sial", 
    "c1094", 
    "c1778_sial", 
    "c6035_sigma", 
    "c7731_sial", 
    "c8960_sial", 
    "cafamil", 
    "cafecon", 
    "cafeina", 
    "cafeine", 
    "caffedrine", 
    "caffein", 
    "caffeina [italian]", 
    "caffeine", 
    "caffeine (natural)", 
    "caffeine (usp)", 
    "caffeine [ban:jan]", 
    "caffeine solution", 
    "caffeine, anhydrous", 
    "caffeine, synthetic", 
    "caffenium", 
    "caffine", 
    "cafipel", 
    "ccris 1314", 
    "cff", 
    "chebi:27732", 
    "coffein", 
    "coffein [german]", 
    "coffeine", 
    "coffeinum", 
    "component of cafergot", 
    "component of p-a-c compound", 
    "d00528", 
    "dexitac", 
    "dhcplus", 
    "divk1c_000730", 
    "durvitan", 
    "einecs 200-362-1", 
    "eldiatric c", 
    "eu-0100228", 
    "fema no. 2224", 
    "guaranine", 
    "hsdb 36", 
    "idi1_000730", 
    "inchi=1/c8h10n4o2/c1-10-4-9-6-5(10)7(13)12(3)8(14)11(6)2/h4h,1-3h", 
    "kbio1_000730", 
    "kbio2_001781", 
    "kbio2_004349", 
    "kbio2_006917", 
    "kbio3_001141", 
    "kbiogr_002325", 
    "kbioss_001781", 
    "kofein [czech]", 
    "koffein", 
    "koffein [german]", 
    "lopac-c-0750", 
    "lopac0_000228", 
    "ls-237", 
    "mateina", 
    "megxp0_001350", 
    "methyltheobromide", 
    "methyltheobromine", 
    "methylxanthine theophylline", 
    "mettler toledo calibration substance me 18872, caffeine", 
    "miudol", 
    "mls001056714", 
    "mls001066409", 
    "molmap_000054", 
    "ncgc00015208-01", 
    "ncgc00015208-02", 
    "ncgc00090699-01", 
    "ncgc00090699-03", 
    "ncgc00090699-04", 
    "ncgc00090699-07", 
    "ncgc00090699-08", 
    "nchembio774-comp2", 
    "nci-c02733", 
    "nciopen2_008255", 
    "ninds_000730", 
    "nix nap", 
    "no-doz", 
    "nodaca", 
    "nsc 5036", 
    "nsc5036", 
    "organex", 
    "pdsp1_001016", 
    "pdsp1_001235", 
    "pdsp2_001000", 
    "pdsp2_001219", 
    "phensal", 
    "probes1_000150", 
    "probes2_000128", 
    "quick-pep", 
    "refresh'n", 
    "sbb006474", 
    "sdccgmls-0064595.p001", 
    "sdccgmls-0064595.p002", 
    "sk 65 compound", 
    "smr000326667", 
    "spbio_001222", 
    "spectrum1500155", 
    "spectrum2_001261", 
    "spectrum3_000321", 
    "spectrum4_001782", 
    "spectrum5_000423", 
    "spectrum_001301", 
    "stim", 
    "teina", 
    "thein", 
    "theine", 
    "theobromine me", 
    "theobromine, 1-methyl-", 
    "theophylline me", 
    "theophylline, 7-methyl", 
    "tirend", 
    "tnp00310", 
    "tri-aqua", 
    "vivarin", 
    "w222402_aldrich", 
    "wln: t56 bn dn fnvnvj b1 f1 h1", 
    "xanthine, 1,3,7-trimethyl", 
    "zinc00001084"
  ], 
  "elements": [
    "H", 
    "C", 
    "O", 
    "N"
  ], 
  "pointGroup": "Cs", 
  "inchi": "InChI=1S/C8H10N4O2/c1-10-4-9-6-5(10)7(13)12(3)8(14)11(6)2/h4H,1-3H3", 
  "formula": "C8H10N4O2", 
  "iupac_name": "1,3,7-trimethylpurine-2,6-dione", 
  "name": "caffeine"
}