{
  "inchikey": "MUMGGOZAMZWBJJ-DYKIIFRCSA-N", 
  "pm7": {
    "heatOfFormation": -475.17401, 
    "dipole": [
      "4.577", 
      "0.756", 
      "-0.944"
    ], 
    "volume": 372.09, 
    "lumo": 0.063, 
    "homo": -9.733, 
    "surfaceArea": 297.36, 
    "dipoleMoment": 4.734
  }, 
  "chemspider_id": 5791, 
  "tags": [
    "alkene", 
    "hydrophilic", 
    "alkyl", 
    "carbonyl", 
    "ketone", 
    "donor", 
    "ring"
  ], 
  "cas": "58-22-0", 
  "pubchem_cid": 6013, 
  "molecular mass": 288.42442, 
  "synonyms": [
    "(17beta)-17-hydroxyandrost-4-en-3-one", 
    "(8r,9s,10r,13s,14s,17s)-17-hydroxy-10,13-dimethyl-1,2,6,7,8,9,11,12,14,15,16,17-dodecahydrocyclopenta[a]phenanthren-3-one", 
    "17-beta-hydroxy-delta(sup 4)-androsten-3-one", 
    "17-beta-hydroxyandrost-4-en-3-one", 
    "17-hydroxy-(17-beta)-androst-4-en-3-one", 
    "17-hydroxy-(17beta)-androst-4-en-3-one", 
    "17b-hydroxy-4-androsten-3-one", 
    "17beta-hydroxy-3-oxo-4-androstene", 
    "17beta-hydroxy-4-androsten-3-one", 
    "17beta-hydroxy-delta(sup4)-androsten-3-one", 
    "17beta-hydroxyandrost-4-en-3-one", 
    "17beta-hydroxyandrost-4-ene-3-one", 
    "4-androsten-17beta-ol-3-one", 
    "4-androstene-17beta-ol-3-one", 
    "46923_riedel", 
    "58-22-0", 
    "7-beta-hydroxyandrost-4-en-3-one", 
    "9-beta,10-alpha-androst-4-en-3-one, 17-beta-hydroxy-", 
    "aa 2500", 
    "aids-070519", 
    "aids070519", 
    "andro 100", 
    "androderm", 
    "androderm (tn)", 
    "androgel", 
    "androgel (tn)", 
    "androlin", 
    "andronaq", 
    "andropatch", 
    "androst-4-en-17beta-ol-3-one", 
    "androst-4-en-3-one, 17-beta-hydroxy-", 
    "androst-4-en-3-one, 17-hydroxy, (17.beta.)-", 
    "androst-4-en-3-one, 17-hydroxy-, (17-beta)-", 
    "androst-4-en-3-one, 17-hydroxy-, (17beta)-", 
    "androst-4-en-3-one, 17beta-hydroxy-", 
    "andrusol", 
    "bb_nc-0117", 
    "beta testosterone", 
    "c00535", 
    "c1014", 
    "ccris 574", 
    "cdb 111c", 
    "chebi:17347", 
    "cmc_13449", 
    "col 1621", 
    "cp 601b", 
    "cristerona t", 
    "cristerone t", 
    "d00075", 
    "dea no. 4000", 
    "delta(sup 4)-androsten-17(beta)-ol-3-one", 
    "delta4-androsten-17b-ol-3-one", 
    "delta4-androsten-17beta-ol-3-one", 
    "einecs 200-370-5", 
    "geno-cristaux gremy", 
    "halotensin", 
    "homosteron", 
    "homosterone", 
    "hsdb 3398", 
    "libigel", 
    "lmst02020002", 
    "malerone", 
    "malestrone (amps)", 
    "malogen, aquaspension injection", 
    "mertestate", 
    "ncgc00091018-01", 
    "neo-testis", 
    "nsc 9700", 
    "oreton", 
    "oreton-f", 
    "orquisteron", 
    "perandren", 
    "percutacrine androgenique", 
    "primotest", 
    "primoteston", 
    "relibra", 
    "s00309", 
    "striant", 
    "striant (tn)", 
    "sustanone", 
    "sustason 250", 
    "synandrol f", 
    "t1500_sigma", 
    "t5411_sigma", 
    "tes", 
    "teslen", 
    "testandrone", 
    "testiculosterone", 
    "testim", 
    "testim (tn)", 
    "testobase", 
    "testoderm", 
    "testogel", 
    "testoject-50", 
    "testolin", 
    "testopropon", 
    "testosteroid", 
    "testosteron", 
    "testosterona [inn-spanish]", 
    "testosterone", 
    "testosterone (jan/usp)", 
    "testosterone [androgenic steroids, anabolic]", 
    "testosterone [ban:inn]", 
    "testosterone and its esters", 
    "testosterone hydrate", 
    "testosterone solution", 
    "testosterone;  4-androsten-17?-ol-3-one;  17?-hydroxy-4-androsten-3-one", 
    "testosteronum [inn-latin]", 
    "testostosterone", 
    "testoviron schering", 
    "testoviron t", 
    "testro aq", 
    "testrone", 
    "testryl", 
    "trans-testosterone", 
    "virilon", 
    "virormone", 
    "virosterone", 
    "zinc03814409"
  ], 
  "elements": [
    "H", 
    "C", 
    "O"
  ], 
  "pointGroup": "C1", 
  "inchi": "InChI=1S/C19H28O2/c1-18-9-7-13(20)11-12(18)3-4-14-15-5-6-17(21)19(15,2)10-8-16(14)18/h11,14-17,21H,3-10H2,1-2H3/t14-,15-,16-,17-,18-,19-/m0/s1", 
  "formula": "C19H28O2", 
  "iupac_name": "(8r,9s,10r,13s,14s,17s)-17-hydroxy-10,13-dimethyl-1,2,6,7,8,9,11,12,14,15,16,17-dodecahydrocyclopenta[a]phenanthren-3-one", 
  "name": "testosterone"
}