{
  "inchikey": "AYXYPKUFHZROOJ-ZETCQYMHSA-N", 
  "pm7": {
    "heatOfFormation": -524.92081, 
    "dipole": [
      "-0.592", 
      "2.236", 
      "-1.699"
    ], 
    "volume": 220.42, 
    "lumo": 0.769, 
    "homo": -9.223, 
    "surfaceArea": 209.3, 
    "dipoleMoment": 2.87
  }, 
  "chemspider_id": 4589156, 
  "tags": [
    "carboxylic_acid", 
    "hydrophilic", 
    "alkyl", 
    "carbonyl", 
    "donor", 
    "acid"
  ], 
  "cas": "148553-50-8", 
  "pubchem_cid": 25271887, 
  "molecular mass": 159.22608, 
  "synonyms": [
    "(3s)-3-(aminomethyl)-5-methyl-hexanoic acid", 
    "(3s)-3-(aminomethyl)-5-methylhexanoic acid", 
    "(r-)-3-isobutyl gaba", 
    "148553-50-8", 
    "3-isobutyl gaba", 
    "ci 1008", 
    "ci-1008", 
    "d02716", 
    "hexanoic acid, 3-(aminomethyl)-5-methyl-, (3s)-", 
    "hexanoic acid, 3-(aminomethyl)-5-methyl-, (s)-", 
    "lyrica", 
    "lyrica (tn)", 
    "pd 144723", 
    "pd-144723", 
    "pregabalin", 
    "pregabalin (usan)", 
    "pregabalin [usan]", 
    "tos-bb-0910"
  ], 
  "elements": [
    "H", 
    "C", 
    "O", 
    "N"
  ], 
  "pointGroup": "C1", 
  "inchi": "InChI=1S/C8H17NO2/c1-6(2)3-7(5-9)4-8(10)11/h6-7H,3-5,9H2,1-2H3,(H,10,11)/t7-/m0/s1", 
  "formula": "C8H17NO2", 
  "iupac_name": "(3s)-3-(aminomethyl)-5-methylhexanoic acid", 
  "name": "pregabalin"
}