{
  "inchikey": "IAYPIBMASNFSPL-UHFFFAOYSA-N", 
  "pm7": {
    "heatOfFormation": -47.12826, 
    "dipole": [
      "-0.008", 
      "-1.876", 
      "-0.020"
    ], 
    "volume": 61.15, 
    "lumo": 2.178, 
    "homo": -10.55, 
    "surfaceArea": 79.14, 
    "dipoleMoment": 1.877
  }, 
  "chemspider_id": 6114, 
  "tags": [
    "alkyl", 
    "ring", 
    "ether", 
    "hydrophilic", 
    "epoxide"
  ], 
  "cas": [
    "184288-32-2", 
    "19034-08-3", 
    "37341-05-2", 
    "99932-75-9", 
    "9072-62-2", 
    "75-21-8"
  ], 
  "pubchem_cid": 6354, 
  "molecular mass": 44.05256, 
  "synonyms": [
    "03901_fluka", 
    "1,2-epoxyaethan [german]", 
    "1,2-epoxyethane", 
    "1-oxacycloprop-2-yne", 
    "184288-32-2", 
    "19034-08-3", 
    "37341-05-2", 
    "387614_aldrich", 
    "75-21-8", 
    "9072-62-2", 
    "99932-75-9", 
    "aethylenoxid [german]", 
    "ai3-26263", 
    "alpha,beta-oxidoethane", 
    "alpha-hydro-omega-hydroxypoly(oxy(methyl-1,2-ethanediyl)), (chloromethyl)oxirane polymer", 
    "amprolene", 
    "anprolene", 
    "anproline", 
    "c0527", 
    "c06548", 
    "caswell no. 443", 
    "ccris 297", 
    "chebi:27561", 
    "d.e.r. 732 epoxy resin", 
    "d.e.r. 736 epoxy resin", 
    "d03474", 
    "der 736", 
    "dihydrooxirene", 
    "dimethylene oxide", 
    "e.o.", 
    "einecs 200-849-9", 
    "ent-26263", 
    "epa pesticide chemical code 042301", 
    "epoxyethane", 
    "ethene oxide", 
    "ethox", 
    "ethyleenoxide [dutch]", 
    "ethylene (oxyde d') [french]", 
    "ethylene oxide", 
    "ethylene oxide (30% or less), propylene oxide mixture", 
    "ethylene oxide, or ethlene oxide with nitrogen up to a total pressure of 1mpa (10 bar) at 50 degrees c [un1040]  [poison gas]", 
    "etilene (ossido di) [italian]", 
    "eto", 
    "etylenu tlenek [polish]", 
    "fema no. 2433", 
    "hsdb 170", 
    "inchi=1/c2h4o/c1-2-3-1/h1-2h", 
    "ls-1658", 
    "merpol", 
    "nci-c50088", 
    "oxacyclopropane", 
    "oxidoethane", 
    "oxiraan [dutch]", 
    "oxiran", 
    "oxirane", 
    "oxirane, (chloromethyl)-, polymer with alpha-hydro-omega-hydroxypoly(oxy(methyl-1,2-ethanediyl))", 
    "oxiranyl", 
    "oxirene, dihydro-", 
    "oxyfume", 
    "oxyfume 12", 
    "polypropylene glycol, (chloromethyl)oxirane polymer", 
    "qazi-ketcham", 
    "rcra waste no. u115", 
    "rcra waste number u115", 
    "t-gas", 
    "un 1040", 
    "un1040"
  ], 
  "elements": [
    "H", 
    "C", 
    "O"
  ], 
  "pointGroup": "C2v", 
  "inchi": "InChI=1S/C2H4O/c1-2-3-1/h1-2H2", 
  "formula": "C2H4O", 
  "iupac_name": "oxirane", 
  "name": "ethylene oxide"
}