{
  "inchikey": "JTQAPFZZCXWQNQ-UHFFFAOYSA-N", 
  "pm7": {
    "heatOfFormation": 287.43505, 
    "dipole": [
      "-1.778", 
      "-0.005", 
      "-0.009"
    ], 
    "volume": 74.51, 
    "lumo": -0.687, 
    "homo": -8.696, 
    "surfaceArea": 89.82, 
    "dipoleMoment": 1.778
  }, 
  "chemspider_id": 4574411, 
  "tags": [
    "alkyl", 
    "thioether", 
    "alkene", 
    "ring"
  ], 
  "cas": null, 
  "pubchem_cid": 5461041, 
  "molecular mass": 58.10228, 
  "synonyms": [
    "chebi:30976", 
    "thiirene"
  ], 
  "elements": [
    "H", 
    "S", 
    "C"
  ], 
  "pointGroup": "C2v", 
  "inchi": "InChI=1S/C2H2S/c1-2-3-1/h1-2H", 
  "formula": "C2H2S", 
  "iupac_name": "thiirene", 
  "name": "thiirene"
}