{
  "inchikey": "BSYNRYMUTXBXSQ-UHFFFAOYSA-N", 
  "pm7": {
    "heatOfFormation": -642.79348, 
    "dipole": [
      "0.718", 
      "0.491", 
      "-1.511"
    ], 
    "volume": 200.18, 
    "lumo": -0.81, 
    "homo": -9.846, 
    "surfaceArea": 195.0, 
    "dipoleMoment": 1.743
  }, 
  "chemspider_id": 2157, 
  "tags": [
    "carboxylic_acid", 
    "hydrophilic", 
    "alkyl", 
    "aromatic", 
    "benzene_ring", 
    "carbonyl", 
    "ester", 
    "donor", 
    "ring", 
    "acid"
  ], 
  "cas": [
    "50-78-2", 
    "11126-35-5", 
    "11126-37-7", 
    "2349-94-2", 
    "26914-13-6", 
    "98201-60-6"
  ], 
  "pubchem_cid": 2244, 
  "molecular mass": 180.15742, 
  "synonyms": [
    "11126-35-5", 
    "11126-37-7", 
    "2-(acetyloxy)benzoic acid", 
    "2-acetoxybenzenecarboxylic acid", 
    "2-acetoxybenzoic acid", 
    "2-acetyloxybenzoic acid", 
    "2-carboxyphenyl acetate", 
    "2349-94-2", 
    "26914-13-6", 
    "4-10-00-00138 (beilstein handbook reference)", 
    "50-78-2", 
    "98201-60-6", 
    "a.s.a.", 
    "a.s.a. empirin", 
    "a2093_sigma", 
    "a3160_sigma", 
    "a5376_sigma", 
    "a6810_sigma", 
    "ac 5230", 
    "acenterine", 
    "acesal", 
    "aceticyl", 
    "acetilsalicilico", 
    "acetilum acidulatum", 
    "acetisal", 
    "acetol (van)", 
    "acetonyl", 
    "acetophen", 
    "acetosal", 
    "acetosalic acid", 
    "acetosalin", 
    "acetylin", 
    "acetylsal", 
    "acetylsalicylate", 
    "acetylsalicylic acid", 
    "acetylsalicylic acid, aspirin", 
    "acetylsalicylsaeure", 
    "acetylsalicylsaure", 
    "acetylsalicylsaure [german]", 
    "acetylsalycilic acid", 
    "acide 2-(acetyloxy)benzoique", 
    "acide acetylsalicylique", 
    "acide acetylsalicylique [french]", 
    "acido acetilsalicilico [italian]", 
    "acido o-acetil-benzoico [italian]", 
    "acidum acetylsalicylicum", 
    "acimetten", 
    "acisal", 
    "acylpyrin", 
    "adiro", 
    "ai3-02956", 
    "aids-006788", 
    "aids006788", 
    "ain", 
    "anacin maximum strength", 
    "asa", 
    "asacard", 
    "asagran", 
    "aspec", 
    "aspergum", 
    "aspirdrops", 
    "aspirin", 
    "aspirin (jp15/usp)", 
    "aspirin [ban:jan]", 
    "aspirina 03", 
    "aspirine", 
    "aspro", 
    "aspro clear", 
    "asteric", 
    "axotal", 
    "azetylsalizylsaeure", 
    "bay-e-4465", 
    "bayer", 
    "bayer aspirin 8 hour", 
    "bayer buffered", 
    "bayer children's aspirin", 
    "bayer enteric 325 mg regular strength", 
    "bayer enteric 500 mg arthritis strength", 
    "bayer enteric 81 mg adult low strength", 
    "bayer extra strength aspirin for migraine pain", 
    "bayer plus", 
    "benaspir", 
    "benzoic acid, 2-(acetyloxy)-", 
    "bi-prin", 
    "bialpirina", 
    "bialpirinia", 
    "brn 0779271", 
    "c01405", 
    "cardioaspirin", 
    "ccris 3243", 
    "cemirit", 
    "chebi:15365", 
    "claradin", 
    "clariprin", 
    "cmap_000006", 
    "colfarit", 
    "component of a.s.a. and codeine compound", 
    "component of a.s.a. compound", 
    "component of ansemco 2", 
    "component of ascodeen-30", 
    "component of coricidin", 
    "component of darvon with a.s.a", 
    "component of midol", 
    "component of percobarb", 
    "component of percodan", 
    "component of persistin", 
    "component of phensal", 
    "component of robaxisal", 
    "component of synirin", 
    "component of zactirin", 
    "contrheuma retard", 
    "d00109", 
    "dea no. 9804", 
    "decaten", 
    "delgesic", 
    "divk1c_000555", 
    "dolean ph 8", 
    "duramax", 
    "easprin", 
    "easprin (tn)", 
    "ecm", 
    "ecolen", 
    "ecotrin", 
    "einecs 200-064-1", 
    "empirin", 
    "endydol", 
    "entericin", 
    "enterophen", 
    "enterosarein", 
    "enterosarine", 
    "entrophen", 
    "eu-0100038", 
    "extren", 
    "globentyl", 
    "globoid", 
    "helicon", 
    "hsdb 652", 
    "idi1_000555", 
    "idragin", 
    "inchi=1/c9h8o4/c1-6(10)13-8-5-3-2-4-7(8)9(11)12/h2-5h,1h3,(h,11,12", 
    "istopirin", 
    "kapsazal", 
    "kbio1_000555", 
    "kbio2_001725", 
    "kbio2_002271", 
    "kbio2_004293", 
    "kbio2_004839", 
    "kbio2_006861", 
    "kbio2_007407", 
    "kbio3_002149", 
    "kbio3_002751", 
    "kbiogr_000398", 
    "kbiogr_002271", 
    "kbioss_001725", 
    "kbioss_002272", 
    "kyselina 2-acetoxybenzoova [czech]", 
    "kyselina acetylsalicylova [czech]", 
    "levius", 
    "lopac-a-5376", 
    "lopac0_000038", 
    "measurin", 
    "medisyl", 
    "micrainin", 
    "micristin", 
    "mls001066332", 
    "ncgc00015067-01", 
    "ncgc00090977-01", 
    "ncgc00090977-02", 
    "ncgc00090977-04", 
    "ncgc00090977-05", 
    "ncgc00090977-07", 
    "nci60_002222", 
    "neuronika", 
    "ninds_000555", 
    "novid", 
    "nsc 27223", 
    "nsc27223", 
    "nsc406186", 
    "nu-seals aspirin", 
    "o-acetoxybenzoic acid", 
    "o-acetylsalicylic acid", 
    "o-carboxyphenyl acetate", 
    "p-a-c analgesic tablets", 
    "persistin", 
    "pharmacin", 
    "pirseal", 
    "polopiryna", 
    "premaspin", 
    "rheumin tabletten", 
    "rheumintabletten", 
    "rhodine", 
    "rhonal", 
    "robaxisal", 
    "ronal", 
    "s-211", 
    "salacetin", 
    "salcetogen", 
    "saletin", 
    "salicylic acid acetate", 
    "salicylic acid, acetate", 
    "sbb015069", 
    "smr000059138", 
    "solfrin", 
    "solprin acid", 
    "solpyron", 
    "soma compound", 
    "sp 189", 
    "spbio_001838", 
    "spectrum1500130", 
    "spectrum2_001899", 
    "spectrum3_001295", 
    "spectrum4_000099", 
    "spectrum5_000740", 
    "spectrum_001245", 
    "spira-dine", 
    "st. joseph", 
    "st. joseph aspirin for adults", 
    "supac", 
    "temperal", 
    "triple-sal", 
    "wln: qvr bov1", 
    "xaxa", 
    "yasta", 
    "zorprin"
  ], 
  "elements": [
    "H", 
    "C", 
    "O"
  ], 
  "pointGroup": "C1", 
  "inchi": "InChI=1S/C9H8O4/c1-6(10)13-8-5-3-2-4-7(8)9(11)12/h2-5H,1H3,(H,11,12)", 
  "formula": "C9H8O4", 
  "iupac_name": "2-acetyloxybenzoic acid", 
  "name": "aspirin"
}