{
  "inchikey": "PWBKFOFSZZSKAI-UHFFFAOYSA-N", 
  "pm7": {
    "heatOfFormation": -65.44713, 
    "dipole": [
      "1.425", 
      "0.006", 
      "0.152"
    ], 
    "volume": 119.16, 
    "lumo": 0.415, 
    "homo": -7.837, 
    "surfaceArea": 126.83, 
    "dipoleMoment": 1.433
  }, 
  "chemspider_id": 121597, 
  "tags": [
    "alkyl", 
    "ring"
  ], 
  "cas": "3465-98-3", 
  "pubchem_cid": 137951, 
  "molecular mass": 135.06632, 
  "synonyms": [
    "3465-98-3", 
    "selenacyclopentane", 
    "selenolane", 
    "selenophene, tetrahydro-"
  ], 
  "elements": [
    "H", 
    "C", 
    "Se"
  ], 
  "pointGroup": "C2", 
  "inchi": "InChI=1S/C4H8Se/c1-2-4-5-3-1/h1-4H2", 
  "formula": "C4H8Se", 
  "iupac_name": "selenolane", 
  "name": "selenacyclopentane"
}