{
  "inchikey": "RAOIDOHSFRTOEL-UHFFFAOYSA-N", 
  "pm7": {
    "heatOfFormation": -42.91245, 
    "dipole": [
      "2.315", 
      "0.006", 
      "0.163"
    ], 
    "volume": 115.15, 
    "lumo": 0.124, 
    "homo": -8.393, 
    "surfaceArea": 123.82, 
    "dipoleMoment": 2.32
  }, 
  "chemspider_id": 1095, 
  "tags": [
    "alkyl", 
    "thioether", 
    "ring"
  ], 
  "cas": "110-01-0", 
  "pubchem_cid": 1127, 
  "molecular mass": 88.17132, 
  "synonyms": [
    "110-01-0", 
    "442799_supelco", 
    "87490_fluka", 
    "ai3-30989", 
    "einecs 203-728-9", 
    "hsdb 6122", 
    "inchi=1/c4h8s/c1-2-4-5-3-1/h1-4h", 
    "nsc 5272", 
    "nsc5272", 
    "pennodorant 1013", 
    "pennodorant 1073", 
    "t15601_aldrich", 
    "tetrahydrothiofen [czech]", 
    "tetrahydrothiophen", 
    "tetrahydrothiophene", 
    "tetrahydrothiophene [un2412]  [flammable liquid]", 
    "tetramethylene sulfide", 
    "tetramethylenesulfide", 
    "thiacyclopentane", 
    "thilane", 
    "thiofan [czech]", 
    "thiolane", 
    "thiophane", 
    "thiophene, tetrahydro-", 
    "un2412"
  ], 
  "elements": [
    "H", 
    "S", 
    "C"
  ], 
  "pointGroup": "C2", 
  "inchi": "InChI=1S/C4H8S/c1-2-4-5-3-1/h1-4H2", 
  "formula": "C4H8S", 
  "iupac_name": "thiolane", 
  "name": "thiolane"
}