{
  "inchikey": "AHHWIHXENZJRFG-UHFFFAOYSA-N", 
  "pm7": {
    "heatOfFormation": -106.17109, 
    "dipole": [
      "1.980", 
      "0.001", 
      "0.472"
    ], 
    "volume": 79.77, 
    "lumo": 2.13, 
    "homo": -9.932, 
    "surfaceArea": 96.09, 
    "dipoleMoment": 2.035
  }, 
  "chemspider_id": 9994, 
  "tags": [
    "alkyl", 
    "ring", 
    "ether", 
    "hydrophilic"
  ], 
  "cas": "503-30-0", 
  "pubchem_cid": 10423, 
  "molecular mass": 58.07914, 
  "synonyms": [
    ".alpha.,.gamma.-propane oxide", 
    "1,3-epoxypropane", 
    "1,3-propylene oxide", 
    "1,3-trimethylene oxide", 
    "503-30-0", 
    "92459_fluka", 
    "ai3-52868", 
    "alpha,gamma-propane oxide", 
    "ccris 4707", 
    "chebi:30965", 
    "cyclooxabutane", 
    "einecs 207-964-3", 
    "hsdb 5492", 
    "inchi=1/c3h6o/c1-2-4-3-1/h1-3h", 
    "ncgc00090837-01", 
    "nsc 30086", 
    "nsc30086", 
    "oxacyclobutane", 
    "oxetan", 
    "oxetane", 
    "propane, 1,3-epoxy-", 
    "t76201_aldrich", 
    "trimethylene oxide", 
    "trimethylene oxide (8ci)", 
    "trimethylenoxid", 
    "trimethylenoxid [german]", 
    "wln: t4otj"
  ], 
  "elements": [
    "H", 
    "C", 
    "O"
  ], 
  "pointGroup": "C2v", 
  "inchi": "InChI=1S/C3H6O/c1-2-4-3-1/h1-3H2", 
  "formula": "C3H6O", 
  "iupac_name": "oxetane", 
  "name": "oxetane"
}