{
  "inchikey": "GZCGUPFRVQAUEE-SLPGGIOYSA-N", 
  "pm7": {
    "heatOfFormation": -1122.80201, 
    "dipole": [
      "0.045", 
      "-0.512", 
      "0.337"
    ], 
    "volume": 201.81, 
    "lumo": 0.073, 
    "homo": -10.551, 
    "surfaceArea": 194.75, 
    "dipoleMoment": 0.614
  }, 
  "chemspider_id": 96749, 
  "tags": [
    "alkyl", 
    "carbonyl", 
    "aldehyde", 
    "hydrophilic", 
    "donor"
  ], 
  "cas": [
    "9050-36-6", 
    "815-92-9", 
    "28823-03-2", 
    "19030-38-7"
  ], 
  "pubchem_cid": 107526, 
  "molecular mass": 180.15588, 
  "synonyms": [
    "(14c)-glucose", 
    "(14c)d-glucose", 
    "(2r,3s,4r,5r)-2,3,4,5,6-pentahydroxyhexanal", 
    "(c13)d-glucose", 
    "(u-14c)glucose", 
    "19030-38-7", 
    "28823-03-2", 
    "815-92-9", 
    "9050-36-6", 
    "aldehydo-d-gluco-hexose", 
    "aldehydo-d-glucose", 
    "chebi:42758", 
    "d-(u-14c)glucose", 
    "d-glucose in linear form", 
    "d-glucose, labeled with carbon-13", 
    "d-glucose, labeled with carbon-14", 
    "d-glucose, labeled with tritium", 
    "einecs 224-118-9", 
    "glo", 
    "glucose (c-13)", 
    "glucose (c-14)", 
    "maltodextrin", 
    "zinc02043211"
  ], 
  "elements": [
    "H", 
    "C", 
    "O"
  ], 
  "pointGroup": "C1", 
  "inchi": "InChI=1S/C6H12O6/c7-1-3(9)5(11)6(12)4(10)2-8/h1,3-6,8-12H,2H2/t3-,4+,5+,6+/m0/s1", 
  "formula": "C6H12O6", 
  "iupac_name": "(2r,3s,4r,5r)-2,3,4,5,6-pentahydroxyhexanal", 
  "name": "d-(+)-glucose"
}