{
  "inchikey": "NOWKCMXCCJGMRR-UHFFFAOYSA-N", 
  "pm7": {
    "heatOfFormation": 135.10165, 
    "dipole": [
      "-0.013", 
      "-1.273", 
      "-1.827"
    ], 
    "volume": 65.59, 
    "lumo": 2.36, 
    "homo": -10.162, 
    "surfaceArea": 83.48, 
    "dipoleMoment": 2.226
  }, 
  "chemspider_id": 8682, 
  "tags": [
    "alkyl", 
    "donor", 
    "ring", 
    "hydrophilic"
  ], 
  "cas": [
    "81210-08-4", 
    "81210-09-5", 
    "99932-76-0", 
    "9077-52-5", 
    "92047-44-4", 
    "96956-22-8", 
    "96956-23-9", 
    "151-56-4", 
    "68130-98-3", 
    "96956-24-0", 
    "9002-98-6", 
    "68130-99-4", 
    "145379-92-6", 
    "39289-19-5", 
    "66456-64-2", 
    "69522-69-6", 
    "81210-07-3"
  ], 
  "pubchem_cid": 9033, 
  "molecular mass": 43.0678, 
  "synonyms": [
    "03880_fluka", 
    "145379-92-6", 
    "151-56-4", 
    "181978_aldrich", 
    "1h-azirine, dihydro-", 
    "39289-19-5", 
    "408700_aldrich", 
    "408727_aldrich", 
    "482595_aldrich", 
    "5-20-01-00003 (beilstein handbook reference)", 
    "66456-64-2", 
    "68130-98-3", 
    "68130-99-4", 
    "69522-69-6", 
    "81210-07-3", 
    "81210-08-4", 
    "81210-09-5", 
    "9002-98-6", 
    "9077-52-5", 
    "92047-44-4", 
    "96956-22-8", 
    "96956-23-9", 
    "96956-24-0", 
    "99932-76-0", 
    "aethylenimin [german]", 
    "ai3-50324", 
    "azacyclopropane", 
    "aziran", 
    "aziridin [german]", 
    "aziridine", 
    "aziridine homopolymer", 
    "aziridine, homopolymer", 
    "aziridine, homopolymer, ethoxylated", 
    "aziridine, homopolymer, ethoxylated, phosphonomethylated", 
    "brn 0102380", 
    "c11687", 
    "ccris 296", 
    "ccris 8979", 
    "cf 218 (polymer)", 
    "chebi:30969", 
    "dihydro-1h-azirine", 
    "dihydroazirene", 
    "dihydroazirine", 
    "dimethyleneimine", 
    "dow pei-18", 
    "dow pei-6", 
    "dow pei-600e", 
    "ei", 
    "einecs 205-793-9", 
    "ent-50324", 
    "epamine 150t", 
    "epomine 1000", 
    "epomine 150t", 
    "epomine p 1000", 
    "ethoxylated polyethylenimine, m.w. 60,000", 
    "ethyleenimine [dutch]", 
    "ethylene imine", 
    "ethylene imine polymer solution", 
    "ethyleneimine", 
    "ethyleneimine polymer solution", 
    "ethyleneimine, homopolymer", 
    "ethyleneimine, inhibited [un1185]  [poison]", 
    "ethylenimine", 
    "ethylenimine polymer", 
    "ethylenimine resins", 
    "ethylenimine, homopolymer", 
    "ethylenimine, polymers", 
    "ethylenimine, polymers (8ci)", 
    "etilenimina [italian]", 
    "everamine", 
    "everamine 210t", 
    "everamine 50t", 
    "hsdb 540", 
    "inchi=1/c2h5n/c1-2-3-1/h3h,1-2h", 
    "montrek 1000", 
    "montrek 6", 
    "montrek pei 18", 
    "montrek pei 6", 
    "nsc 124034", 
    "nsc 124035", 
    "nsc 124036", 
    "nsc 134422", 
    "nsc 196335", 
    "nsc124034", 
    "nsc124035", 
    "nsc124036", 
    "nsc134422", 
    "nsc196335", 
    "p 1000", 
    "p 1000 (polyamine)", 
    "p 1000 (van)", 
    "p3143_sigma", 
    "pei", 
    "pei 1", 
    "pei 100", 
    "pei 1000", 
    "pei 1120", 
    "pei 12", 
    "pei 18", 
    "pei 2", 
    "pei 400", 
    "pei 6", 
    "pei 600", 
    "pei-1000", 
    "pei-1400", 
    "pei-15", 
    "pei-1500", 
    "pei-1750", 
    "pei-2500", 
    "pei-275", 
    "pei-30", 
    "pei-45", 
    "pei-600", 
    "pei-7", 
    "pei-700", 
    "phosphonomethylated (ethoxylated polyethylenepolyamine)", 
    "poly(ethylene imine)", 
    "poly(ethyleneimine) solution", 
    "poly(ethylenimine)", 
    "polyaziridine", 
    "polyethyleneimine", 
    "polyethyleneimine (van)", 
    "polyethylenimine", 
    "polyethylenimine (10,000)", 
    "polyethylenimine (20,000)", 
    "polyethylenimine (35,000)", 
    "polyethylenimine (40,000)", 
    "polyethylenimine 1000", 
    "polyethylenimine 1400", 
    "polyethylenimine 14000", 
    "polyethylenimine 15", 
    "polyethylenimine 1500", 
    "polyethylenimine 1750", 
    "polyethylenimine 2500", 
    "polyethylenimine 275", 
    "polyethylenimine 30", 
    "polyethylenimine 45", 
    "polyethylenimine 7", 
    "polyethylenimine 700", 
    "polyethylenimine solution", 
    "polyethylenimine, branched", 
    "polyethylenimine, m.w.1800", 
    "polyethylenimine, m.w.600", 
    "polymin", 
    "polymin fl", 
    "polymin p", 
    "polymine p", 
    "rcra waste no. p054", 
    "rcra waste number p054", 
    "tl 337", 
    "tydex 12", 
    "un1185", 
    "wln: /t3mtj/"
  ], 
  "elements": [
    "H", 
    "C", 
    "N"
  ], 
  "pointGroup": "Cs", 
  "inchi": "InChI=1S/C2H5N/c1-2-3-1/h3H,1-2H2", 
  "formula": "C2H5N", 
  "iupac_name": "aziridine", 
  "name": "aziridine"
}