{
  "inchikey": "HVYWMOMLDIMFJA-DPAQBDIFSA-N", 
  "pm7": {
    "heatOfFormation": -524.04312, 
    "dipole": [
      "-1.413", 
      "-0.984", 
      "0.139"
    ], 
    "volume": 540.83, 
    "lumo": 1.249, 
    "homo": -9.242, 
    "surfaceArea": 432.75, 
    "dipoleMoment": 1.727
  }, 
  "chemspider_id": 5775, 
  "tags": [
    "alkyl", 
    "donor", 
    "alkene", 
    "ring", 
    "hydrophilic"
  ], 
  "cas": [
    "80356-14-5", 
    "22243-67-0", 
    "57-88-5", 
    "209124-38-9", 
    "218965-24-3"
  ], 
  "pubchem_cid": 5997, 
  "molecular mass": 386.65354, 
  "synonyms": [
    "(3beta)-cholest-5-en-3-ol", 
    "(3h)-cholesterol", 
    "(3s,8s,9s,10r,13r,14s,17r)-10,13-dimethyl-17-[(2r)-6-methylheptan-2-yl]-2,3,4,7,8,9,11,12,14,15,16,17-dodecahydro-1h-cyclopenta[a]phenanthren-3-ol", 
    "14606_fluka", 
    "20808_riedel", 
    "209124-38-9", 
    "218965-24-3", 
    "22243-67-0", 
    "26732_fluka", 
    "26740_fluka", 
    "3-beta-hydroxycholest-5-ene", 
    "3.beta.-hydroxycholest-5-ene", 
    "3beta-hydroxy-5-cholestene", 
    "3beta-hydroxycholest-5-ene", 
    "47127u_supelco", 
    "5,6-cholesten-3.beta.-ol", 
    "5-cholesten-3.beta.-ol", 
    "5-cholesten-3b-ol", 
    "5-cholesten-3beta-ol", 
    "57-88-5", 
    "5:6-cholesten-3-ol", 
    "5:6-cholesten-3.beta.-ol", 
    "5:6-cholesten-3beta-ol", 
    "80356-14-5", 
    "ai3-03112", 
    "aids-080405", 
    "aids-338945", 
    "aids080405", 
    "aids338945", 
    "bb_nc-0135", 
    "c00187", 
    "c1231_sigma", 
    "c3045_sigma", 
    "c3137_sigma", 
    "c3292_sigma", 
    "c8503_sigma", 
    "c8667_sigma", 
    "ccris 2834", 
    "chebi:16113", 
    "cholest-5-en-3-beta-ol", 
    "cholest-5-en-3-ol (3beta)-", 
    "cholest-5-en-3-ol (3beta)-, labeled with tritium", 
    "cholest-5-en-3-ol, (3-.beta.)-", 
    "cholest-5-en-3-ol, (3.beta.)-", 
    "cholest-5-en-3-ol, (3beta)-", 
    "cholest-5-en-3.beta.-ol", 
    "cholest-5-en-3beta-ol", 
    "cholesterin", 
    "cholesterine", 
    "cholesterol", 
    "cholesterol (jp15/nf)", 
    "cholesterol (tn)", 
    "cholesterol [usan:jan]", 
    "cholesterol base h", 
    "cholesterol solution", 
    "cholesteryl alcohol", 
    "cholestrin", 
    "cholestrol", 
    "clr", 
    "cmc_13392", 
    "cordulan", 
    "d00040", 
    "delta(sup 5)-cholesten-3-beta-ol", 
    "delta5-cholesten-3beta-ol", 
    "dusoline", 
    "dusoran", 
    "dythol", 
    "einecs 200-353-2", 
    "hsdb 7106", 
    "hydrocerin", 
    "kathro", 
    "lanol", 
    "lidinit", 
    "lidinite", 
    "lmst01010001", 
    "ncgc00159351-02", 
    "nchembio.77-comp1", 
    "nchembio782-comp1", 
    "nimco cholesterol base h", 
    "nimco cholesterol base no. 712", 
    "nsc 8798", 
    "nsc8798", 
    "phospholipon & cholesterol", 
    "provitamin d", 
    "s5442_sigma", 
    "smp1_000069", 
    "soya phospholipon & cholesterol  (2:1 molar ratio)", 
    "super hartolan", 
    "synthechol", 
    "synthechol ns0 supplement", 
    "synthetic cholesterol", 
    "tegolan", 
    "tegolan (van)", 
    "wln: l e5 b666 lutj a1 e1 fy1&3y1&1 oq", 
    "wool alcohols b. p.", 
    "zinc03875383"
  ], 
  "elements": [
    "H", 
    "C", 
    "O"
  ], 
  "pointGroup": "C1", 
  "inchi": "InChI=1S/C27H46O/c1-18(2)7-6-8-19(3)23-11-12-24-22-10-9-20-17-21(28)13-15-26(20,4)25(22)14-16-27(23,24)5/h9,18-19,21-25,28H,6-8,10-17H2,1-5H3/t19-,21+,22+,23-,24+,25+,26+,27-/m1/s1", 
  "formula": "C27H46O", 
  "iupac_name": "(3s,8s,9s,10r,13r,14s,17r)-10,13-dimethyl-17-[(2r)-6-methylheptan-2-yl]-2,3,4,7,8,9,11,12,14,15,16,17-dodecahydro-1h-cyclopenta[a]phenanthren-3-ol", 
  "name": "cholesterol"
}