{
  "inchikey": "XLYOFNOQVPJJNP-UHFFFAOYSA-N", 
  "pm7": {
    "heatOfFormation": -241.83384, 
    "dipole": [
      "-0.004", 
      "2.129", 
      "-0.000"
    ], 
    "volume": 25.18, 
    "lumo": 4.048, 
    "homo": -12.115, 
    "surfaceArea": 42.43, 
    "dipoleMoment": 2.129
  }, 
  "chemspider_id": 937, 
  "tags": [
    "donor", 
    "hydrophilic"
  ], 
  "cas": [
    "14314-42-2", 
    "558440-22-5", 
    "13670-17-2", 
    "7732-18-5", 
    "17778-80-2"
  ], 
  "pubchem_cid": 962, 
  "molecular mass": 18.01528, 
  "synonyms": [
    "00612_fluka", 
    "13670-17-2", 
    "14211_fluka", 
    "14314-42-2", 
    "17749_fluka", 
    "17778-80-2", 
    "195294_aldrich", 
    "2107_sigma", 
    "270733_aldrich", 
    "320072_sial", 
    "329886_aldrich", 
    "34478_riedel", 
    "34673_riedel", 
    "34675_riedel", 
    "34677_riedel", 
    "34877_riedel", 
    "34978_riedel", 
    "390542_aldrich", 
    "39253_riedel", 
    "3h-water", 
    "558440-22-5", 
    "7732-18-5", 
    "95280_fluka", 
    "95283_fluka", 
    "95284_fluka", 
    "95285_fluka", 
    "95287_fluka", 
    "95289_fluka", 
    "95303_fluka", 
    "95305_fluka", 
    "[oh2]", 
    "acqua", 
    "agua", 
    "aqua", 
    "atomic oxygen", 
    "bound oxygen", 
    "bound water", 
    "c00001", 
    "ccris 6115", 
    "chebi:15377", 
    "chebi:25698", 
    "d00001", 
    "deionized water", 
    "dhmo", 
    "dihydridooxygen", 
    "dihydrogen monoxide", 
    "dihydrogen oxide", 
    "dis", 
    "disordered solvent", 
    "distilled water", 
    "e-toxate water", 
    "eau", 
    "einecs 231-791-2", 
    "ethers", 
    "glucose 4-o4 group", 
    "gte", 
    "h(2)o", 
    "h2o", 
    "hoh", 
    "hyd", 
    "hydroxy group", 
    "ice", 
    "monooxygen", 
    "nsc 147337", 
    "nsc147337", 
    "oh", 
    "ox", 
    "oxidane", 
    "oxo", 
    "oxo group", 
    "oxygen atom", 
    "oxygen(sup 3p)", 
    "oxygen, atomic", 
    "photooxygen", 
    "purified water", 
    "purified water (jp15)", 
    "qtr", 
    "singlet oxygen", 
    "sterile purified water", 
    "sterile purified water (jp15)", 
    "sterile water", 
    "sterile water (tn)", 
    "tritiated water (hto)", 
    "tritiated water, mono-", 
    "unknown", 
    "w1503_sigma", 
    "w1754_sigma", 
    "w3500_sigma", 
    "w3513_sigma", 
    "w4502_sigma", 
    "wasser", 
    "water", 
    "water (jp15/usp)", 
    "water for injection", 
    "water for injection (jp15)", 
    "water vapor", 
    "water with 0.1% acetic acid", 
    "water with 0.1% formic acid", 
    "water with 0.1% formic acid and 0.01% trifluoroacetic acid", 
    "water with 0.1% trifluoroacetic acid", 
    "water, deionized", 
    "water, deuterium-depleted", 
    "water, distilled", 
    "water, distilled, conductivity or of similar purity", 
    "water, heavy", 
    "water, mineral", 
    "water, purified", 
    "water, purified (jp15/usp)", 
    "water-16o"
  ], 
  "elements": [
    "H", 
    "O"
  ], 
  "pointGroup": "C2v", 
  "inchi": "InChI=1S/H2O/h1H2", 
  "formula": "H2O", 
  "iupac_name": "oxidane", 
  "name": "water"
}