{"wiki": "https://en.wikipedia.org/wiki/Erythromycin", "smiles": "CC[C@H]1OC(=O)[C@H](C)[C@@H](O[C@@H]2O[C@@H](C)[C@@H]([C@](C2)(C)OC)O)[C@H](C)[C@@H](O[C@@H]2O[C@H](C)C[C@@H]([C@H]2O)N(C)C)[C@](C[C@H](C(=O)[C@@H]([C@H]([C@]1(C)O)O)C)C)(C)O", "inchikey": "ULGZDMOVFRHVEP-RWJQBGPGSA-N", "pm7": {"heatOfFormation": -2802.58588, "rotational": ["0.00279795", "0.00139395", "0.00111727"], "dipole": ["1.578", "-2.311", "-1.761"], "orbitals": ["-35.323", "-31.616", "-31.300", "-31.215", "-30.878", "-30.578", "-30.339", "-29.895", "-29.749", "-29.454", "-29.244", "-29.161", "-28.926", "-28.686", "-28.311", "-27.953", "-27.820", "-27.463", "-27.331", "-27.274", "-26.926", "-26.695", "-26.328", "-26.176", "-25.663", "-24.823", "-24.809", "-24.505", "-24.210", "-24.171", "-23.953", "-23.574", "-23.556", "-23.510", "-23.431", "-22.705", "-22.335", "-21.935", "-21.808", "-21.283", "-21.012", "-20.794", "-20.564", "-19.986", "-19.710", "-19.454", "-19.383", "-19.142", "-18.689", "-18.572", "-18.168", "-17.993", "-17.722", "-17.530", "-17.347", "-17.284", "-17.086", "-17.012", "-16.869", "-16.571", "-16.507", "-16.393", "-16.273", "-16.084", "-16.032", "-15.965", "-15.862", "-15.797", "-15.604", "-15.525", "-15.478", "-15.402", "-15.296", "-15.196", "-15.090", "-14.973", "-14.874", "-14.812", "-14.747", "-14.643", "-14.518", "-14.460", "-14.367", "-14.275", "-14.216", "-14.178", "-14.061", "-13.995", "-13.906", "-13.757", "-13.745", "-13.657", "-13.594", "-13.539", "-13.465", "-13.430", "-13.403", "-13.312", "-13.276", "-13.190", "-13.164", "-13.108", "-13.081", "-12.982", "-12.938", "-12.905", "-12.807", "-12.725", "-12.697", "-12.577", "-12.555", "-12.512", "-12.466", "-12.462", "-12.415", "-12.385", "-12.323", "-12.301", "-12.193", "-12.145", "-12.069", "-11.915", "-11.883", "-11.870", "-11.817", "-11.778", "-11.702", "-11.654", "-11.509", "-11.491", "-11.402", "-11.254", "-11.193", "-11.081", "-11.007", "-10.929", "-10.860", "-10.774", "-10.565", "-10.559", "-10.300", "-10.247", "-10.047", "-9.977", "-9.840", "-9.709", "-9.598", "-9.362", "-9.058", "1.060", "1.282", "1.484", "1.921", "1.984", "2.114", "2.306", "2.459", "2.602", "2.678", "2.919", "2.958", "3.022", "3.222", "3.246", "3.377", "3.488", "3.510", "3.575", "3.589", "3.609", "3.687", "3.748", "3.779", "3.836", "3.882", "3.899", "3.946", "3.968", "4.028", "4.062", "4.104", "4.134", "4.239", "4.267", "4.296", "4.319", "4.355", "4.369", "4.423", "4.489", "4.561", "4.586", "4.654", "4.729", "4.752", "4.770", "4.869", "4.894", "4.939", "5.114", "5.164", "5.244", "5.268", "5.312", "5.365", "5.405", "5.437", "5.446", "5.473", "5.500", "5.522", "5.536", "5.577", "5.593", "5.613", "5.641", "5.668", "5.674", "5.695", "5.720", "5.743", "5.754", "5.789", "5.793", "5.802", "5.819", "5.869", "5.884", "5.893", "5.896", "5.902", "5.907", "5.920", "5.927", "5.938", "5.946", "5.982", "6.049", "6.063", "6.072", "6.090", "6.143", "6.159", "6.190", "6.192", "6.240", "6.291", "6.314", "6.340", "6.373", "6.375", "6.462", "6.464", "6.481", "6.530", "6.559", "6.610", "6.634", "6.741", "6.758", "6.782", "6.860", "6.981", "7.033", "7.081", "7.094", "7.134", "7.358", "7.383", "7.517", "7.642"], "volume": 912.19, "lumo": 1.06, "homo": -9.058, "alpha": ["534.8588", "4.7527", "0.6153", "4.7528", "482.8478", "-0.4796", "0.6142", "-0.4796", "477.8724"], "surfaceArea": 606.03, "polarizability": 73.87398, "dipoleMoment": 3.307}, "chemspider_id": 12041, "shortdoi": "10/f3bxgv", "tags": ["hydrophilic", "alkyl", "tertiary_amine", "acetal", "carbonyl", "ketone", "amine", "ester", "donor", "ring", "lactone", "ether"], "cas": ["114-07-8", "82343-12-2"], "exact mass": "733.46124121", "pubchem_cid": 12560, "molecular mass": "733.9268", "synonyms": ["(3r*,4s*,5s*,6r*,7r*,9r*,11r*,12r*,13s*,14r*)-4-[(2,6-dideoxy-3-c-methyl-3-o-methyl-.alpha.-l-ribo-hexopyranosyl)oxy]-14-ethyl-7,12,13-trihydroxy-3,5,9,11,13-hexamethyl-6-[[3,4,6-trideoxy-3-", "(3r,4s,5s,6r,7r,9r,11r,12r,13s,14r)-6-[(2s,3r,4s,6r)-4-dimethylamino-3-hydroxy-6-methyl-oxan-2-yl]oxy-14-ethyl-7,12,13-trihydroxy-4-[(2r,4r,5s,6s)-5-hydroxy-4-methoxy-4,6-dimethyl-oxan-2-yl]oxy-3,5,7,9,11,13-hexamethyl-1-oxacyclotetradecane-2,10-dione", "(3r,4s,5s,6r,7r,9r,11r,12r,13s,14r)-6-[(2s,3r,4s,6r)-4-dimethylamino-3-hydroxy-6-methyl-tetrahydropyran-2-yl]oxy-14-ethyl-7,12,13-trihydroxy-4-[(2r,4r,5s,6s)-5-hydroxy-4-methoxy-4,6-dimethyl-tetrahydropyran-2-yl]oxy-3,5,7,9,11,13-hexamethyl-1-oxacyclotetradecane-2,10-dione", "(3r,4s,5s,6r,7r,9r,11r,12r,13s,14r)-6-[(2s,3r,4s,6r)-4-dimethylamino-3-hydroxy-6-methyl-tetrahydropyran-2-yl]oxy-14-ethyl-7,12,13-trihydroxy-4-[(2r,4r,5s,6s)-5-hydroxy-4-methoxy-4,6-dimethyl-tetrahydropyran-2-yl]oxy-3,5,7,9,11,13-hexamethyl-1-oxacyclotetradecane-2,10-quinone", "(3r,4s,5s,6r,7r,9r,11r,12r,13s,14r)-6-[(2s,3r,4s,6r)-4-dimethylamino-3-hydroxy-6-methyloxan-2-yl]oxy-14-ethyl-7,12,13-trihydroxy-4-[(2r,4r,5s,6s)-5-hydroxy-4-methoxy-4,6-dimethyloxan-2-yl]oxy-3,5,7,9,11,13-hexamethyl-1-oxacyclotetradecane-2,10-dione", "(3r,4s,5s,6r,7r,9r,11r,12r,13s,14r)-6-[[(2s,3r,4s,6r)-4-dimethylamino-3-hydroxy-6-methyl-2-tetrahydropyranyl]oxy]-14-ethyl-7,12,13-trihydroxy-4-[[(2r,4r,5s,6s)-5-hydroxy-4-methoxy-4,6-dimethyl-2-tetrahydropyranyl]oxy]-3,5,7,9,11,13-hexamethyl-1-oxacyclotetradecane-2,10-dione", "abomacetin", "bb_nc-1332", "bpbio1_000312", "d00140", "ery", "erythro", "erythromycin & vrc3375", "erythromycin (jp15/usp/inn)", "erythromycin a", "erythromycin, n-demethyl-n-(methyl-11c)-", "lmpk01000007", "n-methylerythromycin a", "smp1_000119"], "doi": "10.17614/Q45Q4S23N", "pointGroup": "C1", "inchi": "InChI=1S/C37H67NO13/c1-14-25-37(10,45)30(41)20(4)27(39)18(2)16-35(8,44)32(51-34-28(40)24(38(11)12)15-19(3)47-34)21(5)29(22(6)33(43)49-25)50-26-17-36(9,46-13)31(42)23(7)48-26/h18-26,28-32,34,40-42,44-45H,14-17H2,1-13H3/t18-,19-,20+,21+,22-,23+,24+,25-,26+,28-,29+,30-,31+,32-,34+,35-,36-,37-/m1/s1", "formula": "C37H67NO13", "ark": "ark:/c7614/q45q4s23n", "elements": ["H", "C", "O", "N"], "iupac_name": "(3R,4S,5S,6R,7R,9R,11R,12R,13S,14R)-6-[(2S,3R,4S,6R)-4-(dimethylamino)-3-hydroxy-6-methyl-tetrahydropyran-2-yl]oxy-14-ethyl-7,12,13-trihydroxy-4-[(2R,4R,5S,6S)-5-hydroxy-4-methoxy-4,6-dimethyl-tetrahydropyran-2-yl]oxy-3,5,7,9,11,13-hexamethyl-oxacyclotetradecane-2,10-dione", "name": "erythromycin"}