{
  "inchikey": "KJFMBFZCATUALV-UHFFFAOYSA-N", 
  "pm7": {
    "heatOfFormation": -365.10006, 
    "dipole": [
      "0.159", 
      "-0.372", 
      "6.651"
    ], 
    "volume": 363.38, 
    "lumo": -0.837, 
    "homo": -9.254, 
    "surfaceArea": 316.15, 
    "dipoleMoment": 6.663
  }, 
  "chemspider_id": 4600, 
  "tags": [
    "hydrophilic", 
    "alkyl", 
    "aromatic", 
    "benzene_ring", 
    "carbonyl", 
    "phenol", 
    "ester", 
    "donor", 
    "ring", 
    "lactone"
  ], 
  "cas": [
    "467-29-8", 
    "57214-20-7", 
    "77-09-8"
  ], 
  "pubchem_cid": 4764, 
  "molecular mass": 318.32276, 
  "synonyms": [
    "1(3h)-isobenzofuranone, 3,3-bis(4-hydroxyphenyl)-", 
    "105945_sial", 
    "16019_riedel", 
    "3,3-bis(4-hydroxyphenyl)-1(3h)-isobenzofuranone", 
    "3,3-bis(4-hydroxyphenyl)-1-isobenzofuranone", 
    "3,3-bis(4-hydroxyphenyl)-2-benzofuran-1(3h)-one", 
    "3,3-bis(4-hydroxyphenyl)-2-benzofuran-1-one", 
    "3,3-bis(4-hydroxyphenyl)isobenzofuran-1-one", 
    "3,3-bis(4-hydroxyphenyl)phthalide", 
    "3,3-bis(p-hydroxyphenyl)phthalide", 
    "319236_sial", 
    "33518_riedel", 
    "34605_riedel", 
    "34606_riedel", 
    "34607_riedel", 
    "37167_riedel", 
    "467-29-8", 
    "5-18-04-00188 (beilstein handbook reference)", 
    "57214-20-7", 
    "77-09-8", 
    "agoral", 
    "ai3-09081", 
    "aids-018072", 
    "aids018072", 
    "alophen", 
    "alpha-(p-hydroxyphenyl)-alpha-(4-oxo-2,5-cyclohexadien-1-ylidene)-o-toluic acid", 
    "alpha-di(p-hydroxyphenyl)phthalide", 
    "aronis002962", 
    "bcbcmap01_000174", 
    "brn 0284423", 
    "bspbio_002518", 
    "c14286", 
    "ccris 6266", 
    "chocolax", 
    "colax", 
    "component of agoral", 
    "component of correctol", 
    "component of feen-a-mint pills", 
    "correctol", 
    "d05456", 
    "dihydroxyphthalophenone", 
    "divk1c_000929", 
    "einecs 201-004-7", 
    "espotabs", 
    "eu-0082600", 
    "euchessina", 
    "evac-q-kit", 
    "evac-q-kwik", 
    "evac-q-tabs", 
    "evac-u-gen", 
    "evac-v-lax", 
    "ex-lax", 
    "feen-a-mint gum", 
    "feen-a-mint laxative mints", 
    "femilax", 
    "fenolftalein [czech]", 
    "fenolftaleina [inn-spanish]", 
    "hsdb 4161", 
    "idi1_000929", 
    "inchi=1/c20h14o4/c21-15-9-5-13(6-10-15)20(14-7-11-16(22)12-8-14)18-4-2-1-3-17(18)19(23)24-20/h1-12,21-22", 
    "kbio1_000929", 
    "kbio2_001557", 
    "kbio2_004125", 
    "kbio2_006693", 
    "kbio3_001776", 
    "kbiogr_001383", 
    "kbioss_001557", 
    "koprol", 
    "lax-pills", 
    "laxin", 
    "laxogen", 
    "lilo", 
    "medilax", 
    "mls000069592", 
    "modane (tn)", 
    "ncgc00023694-03", 
    "ncgc00023694-04", 
    "ncgc00023694-05", 
    "ncgc00023694-06", 
    "nci-c55798", 
    "ninds_000929", 
    "nsc 10464", 
    "nsc10464", 
    "nsc215214", 
    "p9750_sial", 
    "phenolax", 
    "phenolphtaleine [inn-french]", 
    "phenolphthalein", 
    "phenolphthalein (inn)", 
    "phenolphthalein [usan:ban:inn]", 
    "phenolphthalein paper", 
    "phenolphthalein solution", 
    "phenolphthaleinum [inn-latin]", 
    "phthalide 3,3,-bis(p-hydroxyphenyl)-", 
    "phthalimetten", 
    "phthalin", 
    "purga", 
    "purgen", 
    "purgophen", 
    "sbb008868", 
    "smp1_000235", 
    "smr000059015", 
    "spbio_001278", 
    "spectrum1500480", 
    "spectrum2_001279", 
    "spectrum3_000888", 
    "spectrum4_000982", 
    "spectrum5_001268", 
    "spectrum_001077", 
    "spulmako-lax", 
    "trilax", 
    "wln: t56 bvo dhj d- d-/r dq 2", 
    "zinc03831317"
  ], 
  "elements": [
    "H", 
    "C", 
    "O"
  ], 
  "pointGroup": "C1", 
  "inchi": "InChI=1S/C20H14O4/c21-15-9-5-13(6-10-15)20(14-7-11-16(22)12-8-14)18-4-2-1-3-17(18)19(23)24-20/h1-12,21-22H", 
  "formula": "C20H14O4", 
  "iupac_name": "3,3-bis(4-hydroxyphenyl)-2-benzofuran-1-one", 
  "name": "phenolphthalein"
}