{
  "inchikey": "OSWPMRLSEDHDFF-UHFFFAOYSA-N", 
  "pm7": {
    "heatOfFormation": -456.7128, 
    "dipole": [
      "0.192", 
      "0.800", 
      "-0.312"
    ], 
    "volume": 175.59, 
    "lumo": -0.693, 
    "homo": -9.512, 
    "surfaceArea": 178.22, 
    "dipoleMoment": 0.88
  }, 
  "chemspider_id": 13848808, 
  "tags": [
    "hydrophilic", 
    "alkyl", 
    "aromatic", 
    "benzene_ring", 
    "carbonyl", 
    "phenol", 
    "ester", 
    "donor", 
    "ring"
  ], 
  "cas": [
    "119-36-8", 
    "8022-86-4", 
    "8024-54-2"
  ], 
  "pubchem_cid": 4133, 
  "molecular mass": 152.14732, 
  "synonyms": [
    "119-36-8", 
    "2-(methoxycarbonyl)phenol", 
    "2-carbomethoxyphenol", 
    "2-hydroxybenzoic acid methyl ester", 
    "2-hydroxybenzoic acid, methyl ester", 
    "4-10-00-00143 (beilstein handbook reference)", 
    "76631_fluka", 
    "8022-86-4", 
    "8024-54-2", 
    "84332_fluka", 
    "ai3-00090", 
    "analgit", 
    "benzoic acid, 2-hydroxy-, methyl ester", 
    "betula", 
    "betula lenta", 
    "betula oil", 
    "birch oil", 
    "birch oil, sweet", 
    "brn 0971516", 
    "c12305", 
    "caswell no. 577", 
    "ccris 6259", 
    "d01087", 
    "einecs 204-317-7", 
    "enamine_001611", 
    "epa pesticide chemical code 076601", 
    "exagien", 
    "fema no. 2745", 
    "fema number 2745", 
    "flucarmit", 
    "gaultheria oil", 
    "gaultheria oil, artificial", 
    "gaultheriaoel", 
    "hsdb 1935", 
    "inchi=1/c8h8o3/c1-11-8(10)6-4-2-3-5-7(6)9/h2-5,9h,1h", 
    "ls-616", 
    "m2047_sial", 
    "m6752_sial", 
    "methyl 2-hydroxybenzoate", 
    "methyl o-hydroxybenzoate", 
    "methyl salicylate", 
    "methyl salicylate (jp15/nf)", 
    "methyl salicylate (natural)", 
    "methyl salicylate (tn)", 
    "methyl salicylate [jan]", 
    "methylester kyseliny salicylove [czech]", 
    "metylester kyseliny salicylove", 
    "metylester kyseliny salicylove [czech]", 
    "natural wintergreen oil", 
    "ncgc00091106-01", 
    "ncgc00091106-02", 
    "nsc 8204", 
    "nsc8204", 
    "o-hydroxybenzoic acid, methyl ester", 
    "oil of wintergreen", 
    "panalgesic", 
    "salicylic acid, methyl ester", 
    "spicewood oil", 
    "sweet birch oil", 
    "synthetic wintergreen oil", 
    "t0505-2596", 
    "teaberry oil", 
    "theragesic", 
    "w215481_aldrich", 
    "w274518_aldrich", 
    "w311308_aldrich", 
    "wintergreen oil", 
    "wintergreen oil, synthetic", 
    "wintergruenoel", 
    "wln: qr bvo1", 
    "zinc00000490"
  ], 
  "elements": [
    "H", 
    "C", 
    "O"
  ], 
  "pointGroup": "C1", 
  "inchi": "InChI=1S/C8H8O3/c1-11-8(10)6-4-2-3-5-7(6)9/h2-5,9H,1H3", 
  "formula": "C8H8O3", 
  "iupac_name": "methyl 2-hydroxybenzoate", 
  "name": "methyl salicylate"
}