{
  "inchikey": "UHOVQNZJYSORNB-UHFFFAOYSA-N", 
  "pm7": {
    "heatOfFormation": 96.05123, 
    "dipole": [
      "-0.001", 
      "0.000", 
      "-0.001"
    ], 
    "volume": 108.45, 
    "lumo": 0.236, 
    "homo": -9.824, 
    "surfaceArea": 119.84, 
    "dipoleMoment": 0.002
  }, 
  "chemspider_id": 236, 
  "tags": [
    "benzene_ring", 
    "ring", 
    "aromatic"
  ], 
  "cas": [
    "27271-55-2", 
    "68956-52-5", 
    "26181-88-4", 
    "174973-66-1", 
    "54682-86-9", 
    "71-43-2"
  ], 
  "pubchem_cid": 241, 
  "molecular mass": 78.11184, 
  "synonyms": [
    "(6)annulene", 
    "12540_fluka", 
    "12552_fluka", 
    "12553_fluka", 
    "154628_sial", 
    "174973-66-1", 
    "26181-88-4", 
    "270709_aldrich", 
    "27271-55-2", 
    "311855_sigma", 
    "319953_sial", 
    "32212_riedel", 
    "322644_sigma", 
    "401765_aldrich", 
    "48503_supelco", 
    "54682-86-9", 
    "676985_aldrich", 
    "68956-52-5", 
    "71-43-2", 
    "[6]annulene", 
    "ai3-00808", 
    "aromatic alkane", 
    "benzeen", 
    "benzeen [dutch]", 
    "benzen", 
    "benzen [polish]", 
    "benzene", 
    "benzene (including benzene from gasoline)", 
    "benzene + aniline combo", 
    "benzene [un1114]  [flammable liquid]", 
    "benzene, labeled with carbon-14", 
    "benzene, labeled with carbon-14 and tritium", 
    "benzene, pure", 
    "benzene-u-14c", 
    "benzene-ul-14c", 
    "benzin", 
    "benzin (obs.)", 
    "benzine", 
    "benzine (obs.)", 
    "benzol", 
    "benzol 90", 
    "benzol diluent", 
    "benzole", 
    "benzolene", 
    "benzolo", 
    "benzolo [italian]", 
    "bicarburet of hydrogen", 
    "bnz", 
    "c01407", 
    "c0142", 
    "carbon oil", 
    "caswell no. 077", 
    "ccris 70", 
    "chebi:16716", 
    "coal naphtha", 
    "cyclohexatriene", 
    "einecs 200-753-7", 
    "epa pesticide chemical code 008801", 
    "fenzen", 
    "fenzen [czech]", 
    "ghl.pd_mitscher_leg0.503", 
    "hsdb 35", 
    "hydrocarbons, c4-8", 
    "inchi=1/c6h6/c1-2-4-6-5-3-1/h1-6", 
    "mineral naphtha", 
    "motor benzol", 
    "ncgc00090744-01", 
    "ncgc00090744-02", 
    "ncgc00163890-01", 
    "ncgc00163890-02", 
    "nci-c55276", 
    "nitration benzene", 
    "nsc 67315", 
    "nsc67315", 
    "phene", 
    "phenyl hydride", 
    "polystream", 
    "pyrobenzol", 
    "pyrobenzole", 
    "rcra waste no. u109", 
    "rcra waste number u019", 
    "rng", 
    "st5214351", 
    "un 1114", 
    "un1114", 
    "wln: rh"
  ], 
  "elements": [
    "H", 
    "C"
  ], 
  "pointGroup": "D6h", 
  "inchi": "InChI=1S/C6H6/c1-2-4-6-5-3-1/h1-6H", 
  "formula": "C6H6", 
  "iupac_name": "benzene", 
  "name": "benzene"
}